 VARIABLES = "X", "Y", "Z"
 ZONE F=FEPOINT, ET=QUADRILATERAL, N=         281 E=         208
   2.5000000000000000        2.5000000000000000        0.0000000000000000     
   1.2500000000000000        1.2500000000000000        0.0000000000000000     
   1.2500000000000000        2.5000000000000000        0.0000000000000000     
  0.62500000000000000       0.62500000000000000        0.0000000000000000     
   1.2500000000000000       0.62500000000000000        0.0000000000000000     
  0.31250000000000000       0.31250000000000000        0.0000000000000000     
  0.62500000000000000       0.31250000000000000        0.0000000000000000     
  0.31250000000000000       0.62500000000000000        0.0000000000000000     
  0.46875000000000000       0.46875000000000000        0.0000000000000000     
  0.62500000000000000       0.46875000000000000        0.0000000000000000     
  0.46875000000000000       0.62500000000000000        0.0000000000000000     
  0.93750000000000000       0.31250000000000000        0.0000000000000000     
   1.2500000000000000       0.31250000000000000        0.0000000000000000     
  0.93750000000000000       0.62500000000000000        0.0000000000000000     
  0.78125000000000000       0.46875000000000000        0.0000000000000000     
  0.78125000000000000       0.62500000000000000        0.0000000000000000     
   1.0937500000000000       0.46875000000000000        0.0000000000000000     
   1.2500000000000000       0.46875000000000000        0.0000000000000000     
   1.0937500000000000       0.62500000000000000        0.0000000000000000     
  0.31250000000000000       0.93750000000000000        0.0000000000000000     
  0.31250000000000000        1.2500000000000000        0.0000000000000000     
  0.15625000000000000       0.78125000000000000        0.0000000000000000     
  0.31250000000000000       0.78125000000000000        0.0000000000000000     
  0.15625000000000000       0.93750000000000000        0.0000000000000000     
  0.15625000000000000        1.0937500000000000        0.0000000000000000     
  0.31250000000000000        1.0937500000000000        0.0000000000000000     
  0.15625000000000000        1.2500000000000000        0.0000000000000000     
   1.2500000000000000       0.93750000000000000        0.0000000000000000     
   1.0937500000000000       0.78125000000000000        0.0000000000000000     
   1.2500000000000000       0.78125000000000000        0.0000000000000000     
   1.0937500000000000       0.93750000000000000        0.0000000000000000     
   1.0937500000000000        1.0937500000000000        0.0000000000000000     
   1.2500000000000000        1.0937500000000000        0.0000000000000000     
   1.0937500000000000        1.2500000000000000        0.0000000000000000     
   1.8750000000000000       0.62500000000000000        0.0000000000000000     
   2.5000000000000000       0.62500000000000000        0.0000000000000000     
   1.8750000000000000        1.2500000000000000        0.0000000000000000     
   1.5625000000000000       0.31250000000000000        0.0000000000000000     
   1.8750000000000000       0.31250000000000000        0.0000000000000000     
   1.5625000000000000       0.62500000000000000        0.0000000000000000     
   1.4062500000000000       0.46875000000000000        0.0000000000000000     
   1.4062500000000000       0.62500000000000000        0.0000000000000000     
   1.7187500000000000       0.46875000000000000        0.0000000000000000     
   1.8750000000000000       0.46875000000000000        0.0000000000000000     
   1.7187500000000000       0.62500000000000000        0.0000000000000000     
   2.1875000000000000       0.31250000000000000        0.0000000000000000     
   2.5000000000000000       0.31250000000000000        0.0000000000000000     
   2.1875000000000000       0.62500000000000000        0.0000000000000000     
   2.0312500000000000       0.46875000000000000        0.0000000000000000     
   2.0312500000000000       0.62500000000000000        0.0000000000000000     
   2.3437500000000000       0.46875000000000000        0.0000000000000000     
   2.5000000000000000       0.46875000000000000        0.0000000000000000     
   2.3437500000000000       0.62500000000000000        0.0000000000000000     
   1.5625000000000000       0.93750000000000000        0.0000000000000000     
   1.8750000000000000       0.93750000000000000        0.0000000000000000     
   1.5625000000000000        1.2500000000000000        0.0000000000000000     
   1.4062500000000000       0.78125000000000000        0.0000000000000000     
   1.7187500000000000       0.78125000000000000        0.0000000000000000     
   1.8750000000000000       0.78125000000000000        0.0000000000000000     
   1.4062500000000000        1.0937500000000000        0.0000000000000000     
   1.4062500000000000        1.2500000000000000        0.0000000000000000     
   1.7187500000000000        1.0937500000000000        0.0000000000000000     
   1.8750000000000000        1.0937500000000000        0.0000000000000000     
   1.7187500000000000        1.2500000000000000        0.0000000000000000     
  0.62500000000000000        1.8750000000000000        0.0000000000000000     
   1.2500000000000000        1.8750000000000000        0.0000000000000000     
  0.62500000000000000        2.5000000000000000        0.0000000000000000     
  0.31250000000000000        1.5625000000000000        0.0000000000000000     
  0.62500000000000000        1.5625000000000000        0.0000000000000000     
  0.31250000000000000        1.8750000000000000        0.0000000000000000     
  0.15625000000000000        1.4062500000000000        0.0000000000000000     
  0.31250000000000000        1.4062500000000000        0.0000000000000000     
  0.46875000000000000        1.4062500000000000        0.0000000000000000     
  0.62500000000000000        1.4062500000000000        0.0000000000000000     
  0.46875000000000000        1.5625000000000000        0.0000000000000000     
  0.31250000000000000        1.7187500000000000        0.0000000000000000     
  0.46875000000000000        1.7187500000000000        0.0000000000000000     
  0.93750000000000000        1.5625000000000000        0.0000000000000000     
   1.2500000000000000        1.5625000000000000        0.0000000000000000     
  0.93750000000000000        1.8750000000000000        0.0000000000000000     
  0.78125000000000000        1.4062500000000000        0.0000000000000000     
  0.93750000000000000        1.4062500000000000        0.0000000000000000     
  0.78125000000000000        1.5625000000000000        0.0000000000000000     
   1.0937500000000000        1.4062500000000000        0.0000000000000000     
   1.2500000000000000        1.4062500000000000        0.0000000000000000     
   1.0937500000000000        1.5625000000000000        0.0000000000000000     
  0.78125000000000000        1.7187500000000000        0.0000000000000000     
  0.93750000000000000        1.7187500000000000        0.0000000000000000     
   1.0937500000000000        1.7187500000000000        0.0000000000000000     
  0.31250000000000000        2.1875000000000000        0.0000000000000000     
  0.62500000000000000        2.1875000000000000        0.0000000000000000     
  0.31250000000000000        2.5000000000000000        0.0000000000000000     
  0.93750000000000000        2.1875000000000000        0.0000000000000000     
   1.2500000000000000        2.1875000000000000        0.0000000000000000     
  0.93750000000000000        2.5000000000000000        0.0000000000000000     
   1.8750000000000000        1.8750000000000000        0.0000000000000000     
   2.5000000000000000        1.8750000000000000        0.0000000000000000     
   1.8750000000000000        2.5000000000000000        0.0000000000000000     
   1.5625000000000000        1.5625000000000000        0.0000000000000000     
   1.8750000000000000        1.5625000000000000        0.0000000000000000     
   1.5625000000000000        1.8750000000000000        0.0000000000000000     
   1.4062500000000000        1.4062500000000000        0.0000000000000000     
   1.7187500000000000        1.4062500000000000        0.0000000000000000     
   1.8750000000000000        1.4062500000000000        0.0000000000000000     
   2.1875000000000000        1.5625000000000000        0.0000000000000000     
   2.5000000000000000        1.5625000000000000        0.0000000000000000     
   2.1875000000000000        1.8750000000000000        0.0000000000000000     
   2.0312500000000000        1.4062500000000000        0.0000000000000000     
   2.1875000000000000        1.4062500000000000        0.0000000000000000     
   2.0312500000000000        1.5625000000000000        0.0000000000000000     
   2.3437500000000000        1.4062500000000000        0.0000000000000000     
   2.5000000000000000        1.4062500000000000        0.0000000000000000     
   2.3437500000000000        1.5625000000000000        0.0000000000000000     
   2.0312500000000000        1.7187500000000000        0.0000000000000000     
   2.1875000000000000        1.7187500000000000        0.0000000000000000     
   2.3437500000000000        1.7187500000000000        0.0000000000000000     
   2.5000000000000000        1.7187500000000000        0.0000000000000000     
   2.3437500000000000        1.8750000000000000        0.0000000000000000     
   1.5625000000000000        2.1875000000000000        0.0000000000000000     
   1.8750000000000000        2.1875000000000000        0.0000000000000000     
   1.5625000000000000        2.5000000000000000        0.0000000000000000     
   2.1875000000000000        2.1875000000000000        0.0000000000000000     
   2.5000000000000000        2.1875000000000000        0.0000000000000000     
   2.1875000000000000        2.5000000000000000        0.0000000000000000     
   2.3437500000000000        2.0312500000000000        0.0000000000000000     
   2.5000000000000000        2.0312500000000000        0.0000000000000000     
   2.8125000000000000       0.31250000000000000        0.0000000000000000     
   2.8125000000000000       0.62500000000000000        0.0000000000000000     
   2.6562500000000000       0.46875000000000000        0.0000000000000000     
   2.6562500000000000       0.62500000000000000        0.0000000000000000     
   2.8125000000000000       0.93750000000000000        0.0000000000000000     
   2.8125000000000000        1.2500000000000000        0.0000000000000000     
   2.6562500000000000       0.78125000000000000        0.0000000000000000     
   2.8125000000000000       0.78125000000000000        0.0000000000000000     
   2.6562500000000000       0.93750000000000000        0.0000000000000000     
   2.9687500000000000       0.78125000000000000        0.0000000000000000     
   2.9687500000000000       0.93750000000000000        0.0000000000000000     
   2.6562500000000000        1.0937500000000000        0.0000000000000000     
   2.8125000000000000        1.0937500000000000        0.0000000000000000     
   2.6562500000000000        1.2500000000000000        0.0000000000000000     
   2.9687500000000000        1.0937500000000000        0.0000000000000000     
   2.9687500000000000        1.2500000000000000        0.0000000000000000     
   2.6562500000000000        1.4062500000000000        0.0000000000000000     
   2.8125000000000000        1.4062500000000000        0.0000000000000000     
   2.6562500000000000        1.5625000000000000        0.0000000000000000     
   2.9687500000000000        1.4062500000000000        0.0000000000000000     
   2.6562500000000000        1.7187500000000000        0.0000000000000000     
   2.6562500000000000        1.8750000000000000        0.0000000000000000     
   2.8125000000000000        2.5000000000000000        0.0000000000000000     
   2.6562500000000000        2.0312500000000000        0.0000000000000000     
   1.2500000000000000        3.7500000000000000        0.0000000000000000     
  0.62500000000000000        3.1250000000000000        0.0000000000000000     
   1.2500000000000000        3.1250000000000000        0.0000000000000000     
  0.31250000000000000        2.8125000000000000        0.0000000000000000     
  0.62500000000000000        2.8125000000000000        0.0000000000000000     
  0.31250000000000000        3.1250000000000000        0.0000000000000000     
  0.46875000000000000        2.9687500000000000        0.0000000000000000     
  0.62500000000000000        2.9687500000000000        0.0000000000000000     
  0.46875000000000000        3.1250000000000000        0.0000000000000000     
  0.93750000000000000        2.8125000000000000        0.0000000000000000     
   1.2500000000000000        2.8125000000000000        0.0000000000000000     
  0.93750000000000000        3.1250000000000000        0.0000000000000000     
  0.78125000000000000        2.9687500000000000        0.0000000000000000     
  0.78125000000000000        3.1250000000000000        0.0000000000000000     
   1.0937500000000000        2.9687500000000000        0.0000000000000000     
   1.2500000000000000        2.9687500000000000        0.0000000000000000     
   1.0937500000000000        3.1250000000000000        0.0000000000000000     
  0.31250000000000000        3.4375000000000000        0.0000000000000000     
  0.15625000000000000        3.2812500000000000        0.0000000000000000     
  0.31250000000000000        3.2812500000000000        0.0000000000000000     
  0.15625000000000000        3.4375000000000000        0.0000000000000000     
  0.15625000000000000        3.5937500000000000        0.0000000000000000     
  0.31250000000000000        3.5937500000000000        0.0000000000000000     
   1.2500000000000000        3.4375000000000000        0.0000000000000000     
   1.0937500000000000        3.2812500000000000        0.0000000000000000     
   1.2500000000000000        3.2812500000000000        0.0000000000000000     
   1.0937500000000000        3.4375000000000000        0.0000000000000000     
   1.0937500000000000        3.5937500000000000        0.0000000000000000     
   1.2500000000000000        3.5937500000000000        0.0000000000000000     
   1.0937500000000000        3.7500000000000000        0.0000000000000000     
   1.8750000000000000        3.1250000000000000        0.0000000000000000     
   2.5000000000000000        3.1250000000000000        0.0000000000000000     
   1.8750000000000000        3.7500000000000000        0.0000000000000000     
   1.5625000000000000        2.8125000000000000        0.0000000000000000     
   1.8750000000000000        2.8125000000000000        0.0000000000000000     
   1.5625000000000000        3.1250000000000000        0.0000000000000000     
   1.4062500000000000        2.9687500000000000        0.0000000000000000     
   1.4062500000000000        3.1250000000000000        0.0000000000000000     
   1.7187500000000000        2.9687500000000000        0.0000000000000000     
   1.8750000000000000        2.9687500000000000        0.0000000000000000     
   1.7187500000000000        3.1250000000000000        0.0000000000000000     
   2.1875000000000000        2.8125000000000000        0.0000000000000000     
   2.5000000000000000        2.8125000000000000        0.0000000000000000     
   2.1875000000000000        3.1250000000000000        0.0000000000000000     
   2.0312500000000000        2.9687500000000000        0.0000000000000000     
   2.0312500000000000        3.1250000000000000        0.0000000000000000     
   2.3437500000000000        2.9687500000000000        0.0000000000000000     
   2.5000000000000000        2.9687500000000000        0.0000000000000000     
   2.3437500000000000        3.1250000000000000        0.0000000000000000     
   1.5625000000000000        3.4375000000000000        0.0000000000000000     
   1.8750000000000000        3.4375000000000000        0.0000000000000000     
   1.5625000000000000        3.7500000000000000        0.0000000000000000     
   1.4062500000000000        3.2812500000000000        0.0000000000000000     
   1.7187500000000000        3.2812500000000000        0.0000000000000000     
   1.8750000000000000        3.2812500000000000        0.0000000000000000     
   1.4062500000000000        3.5937500000000000        0.0000000000000000     
   1.4062500000000000        3.7500000000000000        0.0000000000000000     
   1.7187500000000000        3.5937500000000000        0.0000000000000000     
   1.8750000000000000        3.5937500000000000        0.0000000000000000     
   1.7187500000000000        3.7500000000000000        0.0000000000000000     
  0.62500000000000000        4.3750000000000000        0.0000000000000000     
   1.2500000000000000        4.3750000000000000        0.0000000000000000     
  0.31250000000000000        4.0625000000000000        0.0000000000000000     
  0.62500000000000000        4.0625000000000000        0.0000000000000000     
  0.31250000000000000        4.3750000000000000        0.0000000000000000     
  0.15625000000000000        3.9062500000000000        0.0000000000000000     
  0.31250000000000000        3.9062500000000000        0.0000000000000000     
  0.15625000000000000        4.0625000000000000        0.0000000000000000     
  0.46875000000000000        3.9062500000000000        0.0000000000000000     
  0.62500000000000000        3.9062500000000000        0.0000000000000000     
  0.46875000000000000        4.0625000000000000        0.0000000000000000     
  0.15625000000000000        4.2187500000000000        0.0000000000000000     
  0.31250000000000000        4.2187500000000000        0.0000000000000000     
  0.46875000000000000        4.2187500000000000        0.0000000000000000     
  0.93750000000000000        4.0625000000000000        0.0000000000000000     
   1.2500000000000000        4.0625000000000000        0.0000000000000000     
  0.93750000000000000        4.3750000000000000        0.0000000000000000     
  0.78125000000000000        3.9062500000000000        0.0000000000000000     
  0.93750000000000000        3.9062500000000000        0.0000000000000000     
  0.78125000000000000        4.0625000000000000        0.0000000000000000     
   1.0937500000000000        3.9062500000000000        0.0000000000000000     
   1.2500000000000000        3.9062500000000000        0.0000000000000000     
   1.0937500000000000        4.0625000000000000        0.0000000000000000     
  0.78125000000000000        4.2187500000000000        0.0000000000000000     
  0.93750000000000000        4.2187500000000000        0.0000000000000000     
   1.0937500000000000        4.2187500000000000        0.0000000000000000     
   1.8750000000000000        4.3750000000000000        0.0000000000000000     
   2.5000000000000000        4.3750000000000000        0.0000000000000000     
   1.5625000000000000        4.0625000000000000        0.0000000000000000     
   1.8750000000000000        4.0625000000000000        0.0000000000000000     
   1.5625000000000000        4.3750000000000000        0.0000000000000000     
   1.4062500000000000        3.9062500000000000        0.0000000000000000     
   1.7187500000000000        3.9062500000000000        0.0000000000000000     
   1.8750000000000000        3.9062500000000000        0.0000000000000000     
   2.1875000000000000        4.0625000000000000        0.0000000000000000     
   2.5000000000000000        4.0625000000000000        0.0000000000000000     
   2.1875000000000000        4.3750000000000000        0.0000000000000000     
   2.0312500000000000        3.9062500000000000        0.0000000000000000     
   2.1875000000000000        3.9062500000000000        0.0000000000000000     
   2.0312500000000000        4.0625000000000000        0.0000000000000000     
   2.3437500000000000        3.9062500000000000        0.0000000000000000     
   2.5000000000000000        3.9062500000000000        0.0000000000000000     
   2.3437500000000000        4.0625000000000000        0.0000000000000000     
   2.0312500000000000        4.2187500000000000        0.0000000000000000     
   2.1875000000000000        4.2187500000000000        0.0000000000000000     
   2.3437500000000000        4.2187500000000000        0.0000000000000000     
   2.8125000000000000        2.8125000000000000        0.0000000000000000     
   2.8125000000000000        3.1250000000000000        0.0000000000000000     
   2.6562500000000000        2.9687500000000000        0.0000000000000000     
   2.6562500000000000        3.1250000000000000        0.0000000000000000     
   2.8125000000000000        3.4375000000000000        0.0000000000000000     
   2.8125000000000000        3.7500000000000000        0.0000000000000000     
   2.6562500000000000        3.2812500000000000        0.0000000000000000     
   2.8125000000000000        3.2812500000000000        0.0000000000000000     
   2.6562500000000000        3.4375000000000000        0.0000000000000000     
   2.9687500000000000        3.2812500000000000        0.0000000000000000     
   2.9687500000000000        3.4375000000000000        0.0000000000000000     
   2.6562500000000000        3.5937500000000000        0.0000000000000000     
   2.8125000000000000        3.5937500000000000        0.0000000000000000     
   2.6562500000000000        3.7500000000000000        0.0000000000000000     
   2.9687500000000000        3.5937500000000000        0.0000000000000000     
   2.8125000000000000        4.0625000000000000        0.0000000000000000     
   2.8125000000000000        4.3750000000000000        0.0000000000000000     
   2.6562500000000000        3.9062500000000000        0.0000000000000000     
   2.8125000000000000        3.9062500000000000        0.0000000000000000     
   2.6562500000000000        4.0625000000000000        0.0000000000000000     
   2.9687500000000000        3.9062500000000000        0.0000000000000000     
   2.9687500000000000        4.0625000000000000        0.0000000000000000     
   2.6562500000000000        4.2187500000000000        0.0000000000000000     
   2.8125000000000000        4.2187500000000000        0.0000000000000000     
   2.9687500000000000        4.2187500000000000        0.0000000000000000     
           6           7          10           9
           6           9          11           8
           9          10           4          11
           7          12          15          10
          10          15          16           4
          15          12          14          16
          12          13          18          17
          12          17          19          14
          17          18           5          19
          22          23          20          24
          24          20          26          25
          25          26          21          27
          19           5          30          29
          29          30          28          31
          31          28          33          32
          32          33           2          34
          13          38          41          18
          18          41          42           5
          41          38          40          42
          38          39          44          43
          38          43          45          40
          43          44          35          45
          39          46          49          44
          44          49          50          35
          49          46          48          50
          46          47          52          51
          46          51          53          48
          51          52          36          53
           5          42          57          30
          42          40          54          57
          30          57          54          28
          40          45          58          54
          45          35          59          58
          58          59          55          54
          28          54          60          33
          33          60          61           2
          60          54          56          61
          54          55          63          62
          54          62          64          56
          62          63          37          64
          27          21          72          71
          72          73          75          68
          73          74          69          75
          68          75          77          76
          75          69          65          77
          76          77          65          70
          74          81          83          69
          81          82          78          83
          34           2          85          84
          82          84          86          78
          84          85          79          86
          69          83          87          65
          83          78          88          87
          87          88          80          65
          78          86          89          88
          86          79          66          89
          88          89          66          80
          70          65          91          90
          90          91          67          92
          65          80          93          91
          80          66          94          93
          91          93          95          67
          93          94           3          95
          79          99         101          66
          99         100          96         101
           2          61         102          85
          61          56          99         102
          85         102          99          79
          56          64         103          99
          64          37         104         103
         103         104         100          99
         104         108         110         100
         108         109         105         110
         109         111         113         105
         111         112         106         113
         100         110         114          96
         110         105         115         114
         114         115         107          96
         105         113         116         115
         113         106         117         116
         115         116         118         107
         116         117          97         118
          66         101         119          94
         101          96         120         119
          94         119         121           3
         119         120          98         121
          96         107         122         120
         120         122         124          98
         122         123           1         124
         107         118         125         122
         118          97         126         125
         125         126         123         122
          47         127         129          52
          52         129         130          36
         129         127         128         130
         130         128         134         133
         133         134         131         135
         134         136         137         131
         135         131         139         138
         138         139         132         140
         131         137         141         139
         139         141         142         132
         140         132         144         143
         112         143         145         106
         132         142         146         144
         106         145         147         117
         117         147         148          97
          97         148         150         126
          92          67         155         154
         154         155         158         157
         154         157         159         156
         157         158         152         159
          67          95         160         155
          95           3         161         160
         155         160         163         158
         158         163         164         152
         163         160         162         164
         160         161         166         165
         160         165         167         162
         165         166         153         167
         169         170         168         171
         171         168         173         172
         167         153         176         175
         175         176         174         177
         177         174         179         178
         178         179         151         180
           3         121         184         161
         121          98         185         184
         161         184         187         166
         166         187         188         153
         187         184         186         188
         184         185         190         189
         184         189         191         186
         189         190         181         191
          98         124         192         185
         124           1         193         192
         185         192         195         190
         190         195         196         181
         195         192         194         196
         192         193         198         197
         192         197         199         194
         197         198         182         199
         153         188         203         176
         188         186         200         203
         176         203         200         174
         186         191         204         200
         191         181         205         204
         204         205         201         200