 VARIABLES = "X", "Y", "Z"
 ZONE F=FEPOINT, ET=QUADRILATERAL, N=         475 E=         407
  0.19629803723146630       0.34598897806401135        0.0000000000000000     
  0.35335698018900974       0.25128827089829237        0.0000000000000000     
  0.71357677553926080       0.24946563765732069        0.0000000000000000     
  0.99401013889623091       0.24959844156093525        0.0000000000000000     
   1.2492003851015090       0.24991214787895233        0.0000000000000000     
   1.5000339337152362       0.25004936457004795        0.0000000000000000     
   1.7509719095028033       0.25011873262338968        0.0000000000000000     
   2.0065042972535729       0.25041160831768422        0.0000000000000000     
   2.2874161335995362       0.25214293279952787        0.0000000000000000     
   2.6477525600816345       0.25862440792570612        0.0000000000000000     
   2.8046876158479921       0.36632734908556908        0.0000000000000000     
  0.23246793032744173       0.47919520642485791        0.0000000000000000     
  0.47220216720593916       0.49536294226026500        0.0000000000000000     
  0.73238390346729532       0.49530557541388520        0.0000000000000000     
  0.99529338195404127       0.49810785821971615        0.0000000000000000     
   1.2490007980552946       0.49983924727459239        0.0000000000000000     
   1.5000895623475630       0.50028366802145541        0.0000000000000000     
   1.7515188575064593       0.50045380950985863        0.0000000000000000     
   2.0065398421976917       0.50061078674405590        0.0000000000000000     
   2.2716421187074149       0.50259416400067058        0.0000000000000000     
   2.5331457788852498       0.51446340576655292        0.0000000000000000     
   2.7714046996668720       0.52616478812721934        0.0000000000000000     
  0.25360512073567010       0.69584792499430381        0.0000000000000000     
  0.50594933212065685       0.72366507354827148        0.0000000000000000     
  0.75158616229272668       0.73279348827469226        0.0000000000000000     
  0.99742536542903193       0.74577903435765980        0.0000000000000000     
   1.2486612981795555       0.75068247118541198        0.0000000000000000     
   1.5001437138892002       0.75023163355425060        0.0000000000000000     
   1.7522607064348878       0.75183008650876793        0.0000000000000000     
   2.0062901133073043       0.75095385753929278        0.0000000000000000     
   2.2586014043352014       0.74854911369600463        0.0000000000000000     
   2.5092371400229845       0.75440068749357925        0.0000000000000000     
   2.7572934489686567       0.75892879752207598        0.0000000000000000     
  0.24977205020537976        1.0136567663864393        0.0000000000000000     
  0.42273599358094049        1.1362591898851619        0.0000000000000000     
  0.75242788621293466       0.94338983363941376        0.0000000000000000     
  0.98526883025815060        1.0131269648823322        0.0000000000000000     
   1.2543821461433273       0.99870415843196747        0.0000000000000000     
   1.5001422571168450       0.99769466858825073        0.0000000000000000     
   1.7465221111087303       0.99990373919530251        0.0000000000000000     
   2.0185493771683540        1.0200247844664501        0.0000000000000000     
   2.2595143855490045       0.96778790897493738        0.0000000000000000     
   2.5013417518195040        1.0064879167894871        0.0000000000000000     
   2.7653752806591627        1.0279133026197398        0.0000000000000000     
  0.75066697558875162        1.2440311844311405        0.0000000000000000     
   1.0629866883541139        1.2334198878988991        0.0000000000000000     
   1.2688833385789704        1.2358277635514228        0.0000000000000000     
   1.5000830639250258        1.2443543083002844        0.0000000000000000     
   1.7315524723910829        1.2364497787530349        0.0000000000000000     
   1.9378949330983914        1.2353920383864876        0.0000000000000000     
   2.2471166646526854        1.2642284778482082        0.0000000000000000     
  0.76262419812904958        1.5108373109857440        0.0000000000000000     
  0.92178966845320531        1.5773171222795133        0.0000000000000000     
   1.2701601453945777        1.4453264131565664        0.0000000000000000     
   1.5000227424294181        1.5449703830916863        0.0000000000000000     
   1.7299229615052270        1.4454875071825601        0.0000000000000000     
   2.0777101867297487        1.5795135629940540        0.0000000000000000     
   2.2361449143962280        1.5207552499559231        0.0000000000000000     
  0.74715048490129854        1.7493367286295731        0.0000000000000000     
  0.98204943237833442        1.7371720194199729        0.0000000000000000     
   1.2400218730831127        1.7570338065741555        0.0000000000000000     
   1.5000012232607014        1.8014618880083022        0.0000000000000000     
   1.7599709478245014        1.7570456365328035        0.0000000000000000     
   2.0177930397094950        1.7373912281616941        0.0000000000000000     
   2.2522129562551765        1.7523276899040892        0.0000000000000000     
  0.21317379640602130        1.9397940439001427        0.0000000000000000     
  0.49842787382761217        1.9969046190643398        0.0000000000000000     
  0.74925144639043195        2.0000758100733615        0.0000000000000000     
   2.2506393118958412        2.0002993467660661        0.0000000000000000     
   2.5014962864038219        1.9993822677766011        0.0000000000000000     
   2.7868167701814621        1.9613043534758243        0.0000000000000000     
  0.27167834356942672        2.1830374081692381        0.0000000000000000     
  0.47959006459451176        2.2650484588511337        0.0000000000000000     
  0.74926124932098215        2.2513605860608554        0.0000000000000000     
   2.2507320150987664        2.2518586420531155        0.0000000000000000     
   2.5203357933227610        2.2776810121837952        0.0000000000000000     
   2.7282412657555906        2.2226239388318612        0.0000000000000000     
  0.25924112889691636        2.4454682366904756        0.0000000000000000     
  0.54076162501010194        2.4871289019812233        0.0000000000000000     
  0.73467671863414341        2.4980798504437645        0.0000000000000000     
   2.2652863331310957        2.4999963631271602        0.0000000000000000     
   2.4587995412510604        2.4999568312382610        0.0000000000000000     
   2.7399427875925260        2.4999414464181871        0.0000000000000000     
  0.26469512803183970        2.7355234551154362        0.0000000000000000     
  0.47814848915263508        2.7093162244331475        0.0000000000000000     
  0.74932877105080054        2.7475657875416934        0.0000000000000000     
   2.2508414696710619        2.7481090899579095        0.0000000000000000     
   2.5205585396816192        2.7220576892584520        0.0000000000000000     
   2.7284713114922150        2.7767269745667642        0.0000000000000000     
  0.17196421344778587        3.0156461929983061        0.0000000000000000     
  0.49138144654475635        3.0002423036269312        0.0000000000000000     
  0.74940839034446272        2.9989655435276705        0.0000000000000000     
   2.2547959838766212        3.0018568812533513        0.0000000000000000     
   2.5028346273054374        2.9942495828335680        0.0000000000000000     
   2.7873339998442583        3.0367964462642933        0.0000000000000000     
  0.74505085818604833        3.2432682076105470        0.0000000000000000     
  0.98202847256549364        3.2623613489633945        0.0000000000000000     
   1.2400223450387438        3.2429583585018342        0.0000000000000000     
   1.4999999021373707        3.1985368237148748        0.0000000000000000     
   1.7599673600274690        3.2429746534502151        0.0000000000000000     
   2.0179334677985037        3.2631453347366222        0.0000000000000000     
   2.2566581276497457        3.2560670429132297        0.0000000000000000     
  0.76282286196731286        3.4736667526498843        0.0000000000000000     
  0.92183646642612027        3.4196981715509560        0.0000000000000000     
   1.2700693842889672        3.5545386240075061        0.0000000000000000     
   1.4999973538216538        3.4550016717165271        0.0000000000000000     
   1.7299145902123878        3.5545469037824917        0.0000000000000000     
   2.0772810491624618        3.4228678182908143        0.0000000000000000     
   2.2343489947207655        3.4887183788773122        0.0000000000000000     
  0.75839088494777784        3.7429631889774990        0.0000000000000000     
   1.0622617288216267        3.7648675479899509        0.0000000000000000     
   1.2684219015796561        3.7635587151208640        0.0000000000000000     
   1.4999257274843005        3.7555343776087629        0.0000000000000000     
   1.7315693621718842        3.7635028989375781        0.0000000000000000     
   1.9379432030296617        3.7647679304932926        0.0000000000000000     
   2.2406202543045262        3.7431627095118021        0.0000000000000000     
  0.25272951034647495        3.9961293188254738        0.0000000000000000     
  0.52576634716793003        3.9758464158704223        0.0000000000000000     
  0.74937988650546417        4.0311465158018365        0.0000000000000000     
  0.98243031971456618        3.9800614405707417        0.0000000000000000     
   1.2527421660845461        4.0000533365067286        0.0000000000000000     
   1.4991374520871865        4.0021122047171405        0.0000000000000000     
   1.7459247322431499        3.9999362602184996        0.0000000000000000     
   2.0196699602645407        3.9789809866223322        0.0000000000000000     
   2.2696286326114965        4.0262749785890346        0.0000000000000000     
   2.5551545131796662        3.9699468443988679        0.0000000000000000     
   2.8129134470144908        3.9952861766145555        0.0000000000000000     
  0.24769186816465566        4.2447360244929992        0.0000000000000000     
  0.49549714770979159        4.2454504056246254        0.0000000000000000     
  0.74122418422334480        4.2498413763839107        0.0000000000000000     
  0.98954549254428625        4.2487207453422862        0.0000000000000000     
   1.2423606236545328        4.2481087912863256        0.0000000000000000     
   1.4944644690031315        4.2495783759834627        0.0000000000000000     
   1.7470857047091641        4.2480228029924136        0.0000000000000000     
   2.0030763959887117        4.2482595854425051        0.0000000000000000     
   2.2620263133737026        4.2487394208843154        0.0000000000000000     
   2.5210646697746610        4.2442476693859295        0.0000000000000000     
   2.7685175634267232        4.2441763543174309        0.0000000000000000     
  0.22518031049338971        4.4798782175564185        0.0000000000000000     
  0.45732419292648169        4.4887621443794865        0.0000000000000000     
  0.71166834208013086        4.4983007279774085        0.0000000000000000     
  0.97230026459644037        4.4994732901410739        0.0000000000000000     
   1.2259180875262263        4.4995374168979660        0.0000000000000000     
   1.4772436639334023        4.4996072013749275        0.0000000000000000     
   1.7291341397478075        4.4995123210299646        0.0000000000000000     
   1.9861902478279134        4.4993843326454517        0.0000000000000000     
   2.2570680086631381        4.4981309670116927        0.0000000000000000     
   2.5272659693354975        4.4885789750293270        0.0000000000000000     
   2.7713627620451122        4.4797720198607944        0.0000000000000000     
  0.18803128883404405        4.6442141927437088        0.0000000000000000     
  0.32629771774583877        4.7470704850856738        0.0000000000000000     
  0.66056303734652388        4.7492288013041826        0.0000000000000000     
  0.93194851611176321        4.7498555942618932        0.0000000000000000     
   1.1859627399541151        4.7499102666048518        0.0000000000000000     
   1.4367552657852900        4.7499158341769023        0.0000000000000000     
   1.6880050517718803        4.7499066111516210        0.0000000000000000     
   1.9454099753575400        4.7498453456711136        0.0000000000000000     
   2.2366741214251786        4.7492114905218088        0.0000000000000000     
   2.6239949208711457        4.7470529255147866        0.0000000000000000     
   2.8019610379140683        4.6442020998607854        0.0000000000000000     
  0.23506869947758019        1.1583118496823119        0.0000000000000000     
  0.31670931063505159        1.1696366635364168        0.0000000000000000     
  0.57864324468264894        1.1074315263997243        0.0000000000000000     
  0.74573990880579577        1.1081182749803633        0.0000000000000000     
  0.61169364229173395        1.2375956827453087        0.0000000000000000     
  0.86807135530329649        1.1302861505940163        0.0000000000000000     
  0.89635101940650252        1.2443583737893957        0.0000000000000000     
   2.1351247555261041        1.1390933523100895        0.0000000000000000     
   2.2584844033653999        1.1336858647498522        0.0000000000000000     
   2.1043745533012230        1.2507919963716039        0.0000000000000000     
   2.4067243085436845        1.1664931136818570        0.0000000000000000     
   2.3793687677676050        1.2832116884627047        0.0000000000000000     
   2.5916410565909138        1.1323585979734554        0.0000000000000000     
   2.6810885223795387        1.1416968953780660        0.0000000000000000     
  0.62490903140057541        1.3560580820310653        0.0000000000000000     
  0.76269833138857945        1.3788260980396989        0.0000000000000000     
  0.62800457667910203        1.4776177995233581        0.0000000000000000     
  0.91700052794709852        1.3991794262383552        0.0000000000000000     
   2.0825168095081703        1.4031503985930682        0.0000000000000000     
   2.2350204316272149        1.3930565330005322        0.0000000000000000     
   2.3720058743461863        1.3903535806946885        0.0000000000000000     
   2.3707580534521147        1.5062777661576718        0.0000000000000000     
  0.62637321649210354        1.6078146541912219        0.0000000000000000     
  0.75204052804904198        1.6310328063893156        0.0000000000000000     
  0.62425055499143445        1.7424359756708847        0.0000000000000000     
  0.84676313517486701        1.6526055883657735        0.0000000000000000     
  0.86372155508763782        1.7474874960664242        0.0000000000000000     
   1.0993882357433673        1.5850866759032720        0.0000000000000000     
   1.2534011092219559        1.6152991887794430        0.0000000000000000     
   1.1119685586572619        1.7370233212939046        0.0000000000000000     
   1.3636988453492285        1.6564966921833093        0.0000000000000000     
   1.3667746699247294        1.8154565103627267        0.0000000000000000     
   1.6363057113116883        1.6565019286205698        0.0000000000000000     
   1.7465991173076680        1.6153440033736579        0.0000000000000000     
   1.6332261705252769        1.8154575377951843        0.0000000000000000     
   1.9005303798096302        1.5854302581910742        0.0000000000000000     
   1.8879804273349872        1.7371163420962472        0.0000000000000000     
   2.1527026462036711        1.6540484526139216        0.0000000000000000     
   2.2470865229353483        1.6373975001303207        0.0000000000000000     
   2.1359101534609111        1.7481857958211664        0.0000000000000000     
   2.3728201253256471        1.6279407510408939        0.0000000000000000     
   2.3751551782240115        1.7503296230401535        0.0000000000000000     
  0.29230537880232360        1.8526852461779451        0.0000000000000000     
  0.38122048525788788        1.8679664286259030        0.0000000000000000     
  0.49991352836119635        1.8728935392396613        0.0000000000000000     
  0.37542660675684697        1.9914239873900577        0.0000000000000000     
  0.62340490907067336        1.8728146952584779        0.0000000000000000     
  0.74860824433248885        1.8736726830235606        0.0000000000000000     
  0.62253116476834292        1.9992946394822930        0.0000000000000000     
  0.87317662787434647        1.8734763119466886        0.0000000000000000     
  0.99694036701673294        1.8716749199802589        0.0000000000000000     
  0.87522947222284719        2.0002083462069487        0.0000000000000000     
   1.1203586436035677        1.8727788761882593        0.0000000000000000     
   1.2362308942157776        1.8821577312253264        0.0000000000000000     
   1.3148294142357158        1.9001749991876073        0.0000000000000000     
   1.6851702934806543        1.9001751376112486        0.0000000000000000     
   1.7637661762450993        1.8821593869476294        0.0000000000000000     
   1.8796261476517377        1.8727840121007080        0.0000000000000000     
   2.0029974134480275        1.8717001311761192        0.0000000000000000     
   2.1266423571441644        1.8736808313164581        0.0000000000000000     
   2.2510660750589913        1.8745317753432742        0.0000000000000000     
   2.1247098206849175        2.0002551587291428        0.0000000000000000     
   2.3762738854832062        1.8741889558180389        0.0000000000000000     
   2.4999304561528448        1.8744171934232987        0.0000000000000000     
   2.3773514764911914        2.0000901322580820        0.0000000000000000     
   2.6187450051472121        1.8710918071501741        0.0000000000000000     
   2.7076878692058060        1.8572723756931526        0.0000000000000000     
   2.6245427869610616        1.9996389740618608        0.0000000000000000     
  0.38460405247318646        2.0962655713759668        0.0000000000000000     
  0.48859582880473179        2.1205083256135517        0.0000000000000000     
  0.62091351675772022        2.1279456198107765        0.0000000000000000     
  0.74923108588483145        2.1265961749855080        0.0000000000000000     
  0.62507364881153815        2.2614372113199752        0.0000000000000000     
  0.87499659187031487        2.1255136914957391        0.0000000000000000     
  0.87389571980815173        2.2502588435800654        0.0000000000000000     
   2.1249901724127800        2.1255479520875222        0.0000000000000000     
   2.2507440358283630        2.1268789267755848        0.0000000000000000     
   2.1261016538666753        2.2503475714737160        0.0000000000000000     
   2.3790563233295665        2.1296042661356482        0.0000000000000000     
   2.5113777585808794        2.1267567184789633        0.0000000000000000     
   2.3748994711744094        2.2642579871796600        0.0000000000000000     
   2.6153790712055942        2.1075165351426484        0.0000000000000000     
  0.64108873231452590        2.3640457248267475        0.0000000000000000     
  0.74198030250140656        2.3736201927311265        0.0000000000000000     
  0.87177200126440346        2.3748800084686335        0.0000000000000000     
  0.87048586143868800        2.4997373455925529        0.0000000000000000     
   2.1282257100421718        2.3750767211357919        0.0000000000000000     
   2.2579983393245420        2.3748871341573139        0.0000000000000000     
   2.1295120795642317        2.4999992937377411        0.0000000000000000     
   2.3588701732698554        2.3669416191270951        0.0000000000000000     
  0.64102545033101421        2.6301109320408922        0.0000000000000000     
  0.74198599821232047        2.6238225897691509        0.0000000000000000     
  0.62488684013523732        2.7328364691096629        0.0000000000000000     
  0.87178243355633434        2.6247156296385179        0.0000000000000000     
  0.87395438608007125        2.7495087308734196        0.0000000000000000     
   2.1282290381614648        2.6249197101369970        0.0000000000000000     
   2.2580072027734359        2.6250999548494831        0.0000000000000000     
   2.1261514058204614        2.7496546779171629        0.0000000000000000     
   2.3588930262602816        2.6330318612174577        0.0000000000000000     
   2.3750533085383241        2.7356131293345372        0.0000000000000000     
  0.37667159409190226        2.8811857914363035        0.0000000000000000     
  0.48557624584844550        2.8672997471416384        0.0000000000000000     
  0.35525480009836663        2.9934339452564571        0.0000000000000000     
  0.62052890462737054        2.8688610717198095        0.0000000000000000     
  0.74946872621645211        2.8726351617041779        0.0000000000000000     
  0.62142334841978186        2.9998183112175685        0.0000000000000000     
  0.87516142037751599        2.8742300182384235        0.0000000000000000     
  0.87539983911072705        2.9992580772324517        0.0000000000000000     
   2.1253202905085797        2.8745965043281743        0.0000000000000000     
   2.2516209193624044        2.8732674001929124        0.0000000000000000     
   2.1256605905651913        3.0004195438324386        0.0000000000000000     
   2.3801270419917637        2.8699432249978973        0.0000000000000000     
   2.5119314105087196        2.8719295440970058        0.0000000000000000     
   2.3835414622244233        2.9996107372628287        0.0000000000000000     
   2.6156241306602230        2.8909976086839806        0.0000000000000000     
   2.6210923445240146        2.9940508711168472        0.0000000000000000     
  0.21627840507983034        3.1385626052070292        0.0000000000000000     
  0.33671705463686885        3.1278182717452250        0.0000000000000000     
  0.48689262298993291        3.1266374197453244        0.0000000000000000     
  0.62071438526077238        3.1247606082717918        0.0000000000000000     
  0.74764041016946803        3.1234717025404910        0.0000000000000000     
  0.62084612371163084        3.2409710098812119        0.0000000000000000     
  0.87304374230874515        3.1254339171250156        0.0000000000000000     
  0.99696977169137591        3.1281066214720266        0.0000000000000000     
  0.86324734895874222        3.2505283254550497        0.0000000000000000     
   1.1203678605015031        3.1271965829178368        0.0000000000000000     
   1.2362320224627206        3.1178403149416831        0.0000000000000000     
   1.1119767404823466        3.2628539477369207        0.0000000000000000     
   1.3148294383273533        3.0998251326108179        0.0000000000000000     
   1.3667737022578417        3.1845427580292460        0.0000000000000000     
   1.6851701760407871        3.0998254792357258        0.0000000000000000     
   1.7637661865655010        3.1178465883683981        0.0000000000000000     
   1.6332251696278324        3.1845434094727891        0.0000000000000000     
   1.8796395977089322        3.1272516340719632        0.0000000000000000     
   2.0031906602200888        3.1285507116083560        0.0000000000000000     
   1.8879718666127310        3.2630382158405213        0.0000000000000000     
   2.1280378529344715        3.1278175607009633        0.0000000000000000     
   2.2579363643487778        3.1317715505198391        0.0000000000000000     
   2.1370082319697046        3.2539364004700921        0.0000000000000000     
   2.4097416471723281        3.1451724210199661        0.0000000000000000     
   2.5020705255411113        3.0856858326823526        0.0000000000000000     
   2.3812976079352342        3.2781319435805520        0.0000000000000000     
   2.5922963339474263        3.1130280643998458        0.0000000000000000     
   2.6978258434183053        3.1395948554962927        0.0000000000000000     
  0.62446050945214027        3.3520002497022330        0.0000000000000000     
  0.75055991849449044        3.3561050796031875        0.0000000000000000     
  0.62822616109731344        3.4703729393666269        0.0000000000000000     
  0.84631847202953903        3.3444417358614311        0.0000000000000000     
   1.0993974421102446        3.4145911226881518        0.0000000000000000     
   1.2533903434854790        3.3846718240025986        0.0000000000000000     
   1.3636941642629838        3.3434989574888818        0.0000000000000000     
   1.6363038678308623        3.3434994682111103        0.0000000000000000     
   1.7465879237449615        3.3846942679606662        0.0000000000000000     
   1.9004370055596336        3.4149248799420207        0.0000000000000000     
   2.1531206535916922        3.3483925626046127        0.0000000000000000     
   2.2479422523765740        3.3703323118867776        0.0000000000000000     
   2.3737021633229038        3.3868722724201761        0.0000000000000000     
   2.3684683749636051        3.5146394253426854        0.0000000000000000     
  0.62887245011245241        3.6033574430990845        0.0000000000000000     
  0.76564363950053504        3.6074605382450247        0.0000000000000000     
  0.63023776877743953        3.7469107090928908        0.0000000000000000     
  0.91762795703859668        3.5974042954597705        0.0000000000000000     
  0.89679667667401275        3.7507656595528513        0.0000000000000000     
   2.0812483815987406        3.5995483236058368        0.0000000000000000     
   2.2289107296932311        3.6188766666029388        0.0000000000000000     
   2.1035285642470294        3.7508077717281720        0.0000000000000000     
   2.3577107068788163        3.6516602488814995        0.0000000000000000     
   2.3393395554170424        3.7432040024114683        0.0000000000000000     
  0.64145421360220800        3.8586293866324408        0.0000000000000000     
  0.75235345173335932        3.8716034616682853        0.0000000000000000     
  0.86699016764912595        3.8621606044259296        0.0000000000000000     
   2.1359817604313873        3.8606625211016730        0.0000000000000000     
   2.2614688299511614        3.8642714332995429        0.0000000000000000     
   2.4159947067081009        3.8206411928802178        0.0000000000000000     
   0.0000000000000000       0.40429689526067403        0.0000000000000000     
   0.0000000000000000       0.30468749095792835        0.0000000000000000     
   0.0000000000000000       0.15234374547896423        0.0000000000000000     
   0.0000000000000000        0.0000000000000000        0.0000000000000000     
  0.37500000569658720        0.0000000000000000        0.0000000000000000     
  0.75000001139317440        0.0000000000000000        0.0000000000000000     
   1.0000000192897514        0.0000000000000000        0.0000000000000000     
   1.2499999807102486        0.0000000000000000        0.0000000000000000     
   1.5000000002173035        0.0000000000000000        0.0000000000000000     
   1.7500000192897516        0.0000000000000000        0.0000000000000000     
   1.9999999807102491        0.0000000000000000        0.0000000000000000     
   2.2500001225690465        0.0000000000000000        0.0000000000000000     
   2.6250000612845232        0.0000000000000000        0.0000000000000000     
   3.0000000000000000        0.0000000000000000        0.0000000000000000     
   3.0000000000000000       0.15234374547896462        0.0000000000000000     
   3.0000000000000000       0.30468749095792924        0.0000000000000000     
   3.0000000000000000       0.50390625038796877        0.0000000000000000     
   3.0000000000000000       0.74804686972545842        0.0000000000000000     
   3.0000000000000000       0.99902343486272915        0.0000000000000000     
   3.0000000000000000        1.2500000000000000        0.0000000000000000     
   2.8730468745478963        1.2500000000000000        0.0000000000000000     
   2.7460937490957926        1.2500000000000000        0.0000000000000000     
   2.5000000000000000        1.2500000000000000        0.0000000000000000     
   2.5000000000000000        1.3193359408433079        0.0000000000000000     
   2.5000000000000000        1.3769531337964318        0.0000000000000000     
   2.5000000000000000        1.5000000000362175        0.0000000000000000     
   2.5000000000000000        1.6250000204281745        0.0000000000000000     
   2.5000000000000000        1.7500000000000000        0.0000000000000000     
   2.6230468662617756        1.7500000000000000        0.0000000000000000     
   2.7226562484929882        1.7500000000000000        0.0000000000000000     
   2.8613281242464939        1.7500000000000000        0.0000000000000000     
   3.0000000000000000        1.7500000000000000        0.0000000000000000     
   3.0000000000000000        2.0009765804584010        0.0000000000000000     
   3.0000000000000000        2.2519531609168024        0.0000000000000000     
   3.0000000000000000        2.5000000001086526        0.0000000000000000     
   3.0000000000000000        2.7480468390831971        0.0000000000000000     
   3.0000000000000000        2.9990234195415986        0.0000000000000000     
   3.0000000000000000        3.2500000000000000        0.0000000000000000     
   2.8730468745478963        3.2500000000000000        0.0000000000000000     