 VARIABLES = "X", "Y", "Z"
 ZONE F=FEPOINT, ET=QUADRILATERAL, N=       12605 E=       12176
   4.8862781613230009E-002   8.6663776142771098E-002   0.0000000000000000     
   8.8105534200554905E-002   6.3034153307561694E-002   0.0000000000000000     
  0.17819611987622755        6.2588021335642702E-002   0.0000000000000000     
  0.24841872394786749        6.2517299484551231E-002   0.0000000000000000     
  0.31228375613310366        6.2504426332507787E-002   0.0000000000000000     
  0.37497863249047492        6.2500755634130087E-002   0.0000000000000000     
  0.43749852554798807        6.2500077137309179E-002   0.0000000000000000     
  0.49999992963499140        6.2500004833605738E-002   0.0000000000000000     
  0.56249999540057782        6.2500000190051641E-002   0.0000000000000000     
  0.62499999747864166        6.2500000004717490E-002   0.0000000000000000     
  0.68750000017742174        6.2500000000073205E-002   0.0000000000000000     
  0.75000000721193139        6.2500000000000694E-002   0.0000000000000000     
  0.81250000866806293        6.2500000000000000E-002   0.0000000000000000     
  0.87500000468961825        6.2500000000000000E-002   0.0000000000000000     
  0.93750000301113257        6.2500000000000000E-002   0.0000000000000000     
   1.0000000004676897        6.2500000000000000E-002   0.0000000000000000     
   1.0625000044442692        6.2500000000000000E-002   0.0000000000000000     
   1.1250000063040990        6.2500000000000000E-002   0.0000000000000000     
   1.1875000030999856        6.2500000000000000E-002   0.0000000000000000     
   1.2500000008595744        6.2500000000000000E-002   0.0000000000000000     
   1.3124999964853126        6.2500000000000000E-002   0.0000000000000000     
   1.3749999949835401        6.2500000000000000E-002   0.0000000000000000     
   1.4374999974624316        6.2500000000000000E-002   0.0000000000000000     
   1.5000000048646767        6.2500000000000000E-002   0.0000000000000000     
   1.5625000086273575        6.2500000000000000E-002   0.0000000000000000     
   1.6250000067592947        6.2500000000000000E-002   0.0000000000000000     
   1.6875000041194994        6.2500000000000000E-002   0.0000000000000000     
   1.7499999993589430        6.2500000000000000E-002   0.0000000000000000     
   1.8125000023700291        6.2500000000000000E-002   0.0000000000000000     
   1.8750000063040619        6.2500000000000000E-002   0.0000000000000000     
   1.9375000051735418        6.2500000000000000E-002   0.0000000000000000     
   2.0000000019598771        6.2500000000000000E-002   0.0000000000000000     
   2.0624999953039040        6.2500000000000000E-002   0.0000000000000000     
   2.1249999924394953        6.2500000000000000E-002   0.0000000000000000     
   2.1874999947467524        6.2500000000000000E-002   0.0000000000000000     
   2.2500000025174152        6.2500000000000000E-002   0.0000000000000000     
   2.3125000085866523        6.2500000000000000E-002   0.0000000000000000     
   2.3750000088289713        6.2500000000000000E-002   0.0000000000000000     
   2.4375000052278666        6.2500000000000000E-002   0.0000000000000000     
   2.4999999982501966        6.2500000000000000E-002   0.0000000000000000     
   2.5625000002957887        6.2500000000000000E-002   0.0000000000000000     
   2.6250000063040240        6.2500000000000000E-002   0.0000000000000000     
   2.6875000072470829        6.2500000000000000E-002   0.0000000000000000     
   2.7500000030597671        6.2500000000000000E-002   0.0000000000000000     
   2.8124999941149600        6.2500000000000000E-002   0.0000000000000000     
   2.8749999898023217        6.2500000000000000E-002   0.0000000000000000     
   2.9374999912257547        6.2500000000000000E-002   0.0000000000000000     
   2.9999999949449188        6.2500000000000000E-002   0.0000000000000000     
   3.0624999782335522        6.2500000000000000E-002   0.0000000000000000     
   3.1249999599197120        6.2500000000000000E-002   0.0000000000000000     
   3.1874999811273077        6.2500000000000000E-002   0.0000000000000000     
   3.2500000218388050        6.2500000000000000E-002   0.0000000000000000     
   3.3125000444648638        6.2500000000000000E-002   0.0000000000000000     
   3.3750000060775327        6.2500000000000000E-002   0.0000000000000000     
   3.4374999626789946        6.2500000000000000E-002   0.0000000000000000     
   3.4999999794817107        6.2500000000000000E-002   0.0000000000000000     
   3.5625000198568686        6.2500000000000000E-002   0.0000000000000000     
   3.6250000452221856        6.2500000000000000E-002   0.0000000000000000     
   3.6875000512587270        6.2500000000000000E-002   0.0000000000000000     
   3.7500000514862930        6.2500000000000000E-002   0.0000000000000000     
   3.8125000092031898        6.2500000000000000E-002   0.0000000000000000     
   3.8749999652047467        6.2500000000000000E-002   0.0000000000000000     
   3.9374999819343790        6.2500000000000000E-002   0.0000000000000000     
   4.0000000219316538        6.2500000000000000E-002   0.0000000000000000     
   4.0625000444723574        6.2500000000000000E-002   0.0000000000000000     
   4.1250000060779426        6.2500000000000000E-002   0.0000000000000000     
   4.1874999626790093        6.2500000000000000E-002   0.0000000000000000     
   4.2499999794817107        6.2500000000000000E-002   0.0000000000000000     
   4.3125000198568673        6.2500000000000000E-002   0.0000000000000000     
   4.3750000452221851        6.2500000000000000E-002   0.0000000000000000     
   4.4375000512587279        6.2500000000000000E-002   0.0000000000000000     
   4.5000000514862926        6.2500000000000000E-002   0.0000000000000000     
   4.5625000092031902        6.2500000000000000E-002   0.0000000000000000     
   4.6249999652047462        6.2500000000000000E-002   0.0000000000000000     
   4.6874999819343790        6.2500000000000000E-002   0.0000000000000000     
   4.7500000219316529        6.2500000000000000E-002   0.0000000000000000     
   4.8125000444723574        6.2500000000000000E-002   0.0000000000000000     
   4.8750000060779426        6.2500000000000000E-002   0.0000000000000000     
   4.9374999626790093        6.2500000000000000E-002   0.0000000000000000     
   4.9999999794817107        6.2500000000000000E-002   0.0000000000000000     
   5.0625000198568673        6.2500000000000000E-002   0.0000000000000000     
   5.1250000452221851        6.2500000000000000E-002   0.0000000000000000     
   5.1875000512587279        6.2500000000000000E-002   0.0000000000000000     
   5.2500000514862988        6.2500000000000694E-002   0.0000000000000000     
   5.3125000092038785        6.2500000000073899E-002   0.0000000000000000     
   5.3749999652536893        6.2500000004834064E-002   0.0000000000000000     
   5.4374999842005094        6.2500000201207689E-002   0.0000000000000000     
   5.5000000920555951        6.2500005480275234E-002   0.0000000000000000     
   5.5625015199446119        6.2500100523786989E-002   0.0000000000000000     
   5.6250213798148607        6.2501292565232763E-002   0.0000000000000000     
   5.6877162123959080        6.2512318269352191E-002   0.0000000000000000     
   5.7515812527170214        6.2591716757056479E-002   0.0000000000000000     
   5.8218038760512796        6.3035326115248660E-002   0.0000000000000000     
   5.9118944652263794        6.4661681311435973E-002   0.0000000000000000     
   5.9511372183098628        9.1591265139737713E-002   0.0000000000000000     
   5.7346145987471349E-002  0.12008714611912406        0.0000000000000000     
  0.11697809558905801       0.12470542974206451        0.0000000000000000     
  0.18237207296504651       0.12479731491404701        0.0000000000000000     
  0.24863106698292423       0.12497730289983811        0.0000000000000000     
  0.31227663153196572       0.12500156573370316        0.0000000000000000     
  0.37497550600144497       0.12500074550962867        0.0000000000000000     
  0.43749818149882208       0.12500009483188507        0.0000000000000000     
  0.49999990840763964       0.12500000651160745        0.0000000000000000     
  0.56249999627078373       0.12500000026959165        0.0000000000000000     
  0.62499999936077699       0.12500000000693273        0.0000000000000000     
  0.68750000049735716       0.12500000000011055        0.0000000000000000     
  0.75000000202472383       0.12500000000000108        0.0000000000000000     
  0.81250000255303068       0.12500000000000000        0.0000000000000000     
  0.87500000189221705       0.12500000000000000        0.0000000000000000     
  0.93750000105124198       0.12500000000000000        0.0000000000000000     
   1.0000000008196581       0.12500000000000000        0.0000000000000000     
   1.0625000013954431       0.12500000000000000        0.0000000000000000     
   1.1250000017493589       0.12500000000000000        0.0000000000000000     
   1.1875000011770040       0.12500000000000000        0.0000000000000000     
   1.2500000001134162       0.12500000000000000        0.0000000000000000     
   1.3124999990312607       0.12500000000000000        0.0000000000000000     
   1.3749999986411834       0.12500000000000000        0.0000000000000000     
   1.4374999995900584       0.12500000000000000        0.0000000000000000     
   1.5000000013784256       0.12500000000000000        0.0000000000000000     
   1.5625000025125997       0.12500000000000000        0.0000000000000000     
   1.6250000023157718       0.12500000000000000        0.0000000000000000     
   1.6875000013114239       0.12500000000000000        0.0000000000000000     
   1.7500000005590133       0.12500000000000000        0.0000000000000000     
   1.8125000009667753       0.12500000000000000        0.0000000000000000     
   1.8750000017493105       0.12500000000000000        0.0000000000000000     
   1.9375000016048418       0.12500000000000000        0.0000000000000000     
   2.0000000003646652       0.12500000000000000        0.0000000000000000     
   2.0624999986995167       0.12500000000000000        0.0000000000000000     
   2.1249999978522527       0.12500000000000000        0.0000000000000000     
   2.1874999986817532       0.12500000000000000        0.0000000000000000     
   2.2500000007321179       0.12500000000000000        0.0000000000000000     
   2.3125000024721687       0.12500000000000000        0.0000000000000000     
   2.3750000027393261       0.12500000000000000        0.0000000000000000     
   2.4375000015716055       0.12500000000000000        0.0000000000000000     
   2.5000000002983680       0.12500000000000000        0.0000000000000000     
   2.5625000005381073       0.12500000000000000        0.0000000000000000     
   2.6250000017492616       0.12500000000000000        0.0000000000000000     
   2.6875000020326594       0.12500000000000000        0.0000000000000000     
   2.7500000006153806       0.12500000000000000        0.0000000000000000     
   2.8124999983586401       0.12500000000000000        0.0000000000000000     
   2.8749999969596916       0.12500000000000000        0.0000000000000000     
   2.9374999969845677       0.12500000000000000        0.0000000000000000     
   2.9999999960644890       0.12500000000000000        0.0000000000000000     
   3.0624999920703351       0.12500000000000000        0.0000000000000000     
   3.1249999896928715       0.12500000000000000        0.0000000000000000     
   3.1874999953367276       0.12500000000000000        0.0000000000000000     
   3.2500000057876828       0.12500000000000000        0.0000000000000000     
   3.3125000096434389       0.12500000000000000        0.0000000000000000     
   3.3750000016738384       0.12500000000000000        0.0000000000000000     
   3.4374999928219627       0.12500000000000000        0.0000000000000000     
   3.4999999952609953       0.12500000000000000        0.0000000000000000     
   3.5625000056257932       0.12500000000000000        0.0000000000000000     
   3.6250000142436907       0.12500000000000000        0.0000000000000000     
   3.6875000175783579       0.12500000000000000        0.0000000000000000     
   3.7500000141766097       0.12500000000000000        0.0000000000000000     
   3.8125000032339309       0.12500000000000000        0.0000000000000000     
   3.8749999937950266       0.12500000000000000        0.0000000000000000     
   3.9374999961291781       0.12500000000000000        0.0000000000000000     
   4.0000000058910761       0.12500000000000000        0.0000000000000000     
   4.0625000096525232       0.12500000000000000        0.0000000000000000     
   4.1250000016743682       0.12500000000000000        0.0000000000000000     
   4.1874999928219818       0.12500000000000000        0.0000000000000000     
   4.2499999952609944       0.12500000000000000        0.0000000000000000     
   4.3125000056257932       0.12500000000000000        0.0000000000000000     
   4.3750000142436907       0.12500000000000000        0.0000000000000000     
   4.4375000175783583       0.12500000000000000        0.0000000000000000     
   4.5000000141766101       0.12500000000000000        0.0000000000000000     
   4.5625000032339305       0.12500000000000000        0.0000000000000000     
   4.6249999937950266       0.12500000000000000        0.0000000000000000     
   4.6874999961291781       0.12500000000000000        0.0000000000000000     
   4.7500000058910761       0.12500000000000000        0.0000000000000000     
   4.8125000096525232       0.12500000000000000        0.0000000000000000     
   4.8750000016743682       0.12500000000000000        0.0000000000000000     
   4.9374999928219818       0.12500000000000000        0.0000000000000000     
   4.9999999952609944       0.12500000000000000        0.0000000000000000     
   5.0625000056257932       0.12500000000000000        0.0000000000000000     
   5.1250000142436907       0.12500000000000000        0.0000000000000000     
   5.1875000175783583       0.12500000000000000        0.0000000000000000     
   5.2500000141766181       0.12500000000000108        0.0000000000000000     
   5.3125000032349377       0.12500000000011188        0.0000000000000000     
   5.3749999938643649       0.12500000000715347        0.0000000000000000     
   5.4374999992213828       0.12500000029070893        0.0000000000000000     
   5.5000000973451657       0.12500000773654893        0.0000000000000000     
   5.5625018288953658       0.12500013924046682        0.0000000000000000     
   5.6250244973368444       0.12500177062148277        0.0000000000000000     
   5.6877233624571035       0.12501679367633153        0.0000000000000000     
   5.7513689259371397       0.12512392161312796        0.0000000000000000     
   5.8176279239636797       0.12572090448771733        0.0000000000000000     
   5.8830219037915299       0.12863535831419889        0.0000000000000000     
   5.9426538539314260       0.13150599731055293        0.0000000000000000     
   6.1531073905328346E-002  0.17204039208726832        0.0000000000000000     
  0.12352552704599616       0.18312075867883310        0.0000000000000000     
  0.18634715292981571       0.18664448125014471        0.0000000000000000     
  0.24951636612847861       0.18738556100964554        0.0000000000000000     
  0.31239348795036320       0.18749189030177196        0.0000000000000000     
  0.37498593842123140       0.18749998752344921        0.0000000000000000     
  0.43749880990293388       0.18750005144848134        0.0000000000000000     
  0.49999993387713437       0.18750000476824552        0.0000000000000000     
  0.56249999745473556       0.18750000022296201        0.0000000000000000     
  0.62499999986110089       0.18750000000615333        0.0000000000000000     
  0.68750000014921953       0.18750000000010317        0.0000000000000000     
  0.75000000043799075       0.18750000000000105        0.0000000000000000     
  0.81250000055673399       0.18750000000000000        0.0000000000000000     
  0.87500000045467274       0.18750000000000000        0.0000000000000000     
  0.93750000029447511       0.18750000000000000        0.0000000000000000     
   1.0000000002496292       0.18750000000000000        0.0000000000000000     
   1.0625000003294960       0.18750000000000000        0.0000000000000000     
   1.1250000003746692       0.18750000000000000        0.0000000000000000     
   1.1875000002606040       0.18750000000000000        0.0000000000000000     
   1.2500000000263676       0.18750000000000000        0.0000000000000000     
   1.3124999998018452       0.18750000000000000        0.0000000000000000     
   1.3749999997449718       0.18750000000000000        0.0000000000000000     
   1.4374999999490747       0.18750000000000000        0.0000000000000000     
   1.5000000002997125       0.18750000000000000        0.0000000000000000     
   1.5625000005386431       0.18750000000000000        0.0000000000000000     
   1.6250000005214260       0.18750000000000000        0.0000000000000000     
   1.6875000003370959       0.18750000000000000        0.0000000000000000     
   1.7500000002067106       0.18750000000000000        0.0000000000000000     
   1.8125000002599205       0.18750000000000000        0.0000000000000000     
   1.8750000003746348       0.18750000000000000        0.0000000000000000     
   1.9375000003296527       0.18750000000000000        0.0000000000000000     
   2.0000000000641673       0.18750000000000000        0.0000000000000000     
   2.0624999997280931       0.18750000000000000        0.0000000000000000     
   2.1249999995708753       0.18750000000000000        0.0000000000000000     
   2.1874999997480402       0.18750000000000000        0.0000000000000000     
   2.2500000001614260       0.18750000000000000        0.0000000000000000     
   2.3125000005205516       0.18750000000000000        0.0000000000000000     
   2.3750000005881784       0.18750000000000000        0.0000000000000000     
   2.4375000003797167       0.18750000000000000        0.0000000000000000     
   2.5000000001637916       0.18750000000000000        0.0000000000000000     
   2.5625000001903442       0.18750000000000000        0.0000000000000000     
   2.6250000003745999       0.18750000000000000        0.0000000000000000     
   2.6875000003986855       0.18750000000000000        0.0000000000000000     
   2.7500000001015881       0.18750000000000000        0.0000000000000000     
   2.8124999996485451       0.18750000000000000        0.0000000000000000     
   2.8749999993403290       0.18750000000000000        0.0000000000000000     
   2.9374999992039701       0.18750000000000000        0.0000000000000000     
   2.9999999988448551       0.18750000000000000        0.0000000000000000     
   3.0624999981419720       0.18750000000000000        0.0000000000000000     
   3.1249999979454071       0.18750000000000000        0.0000000000000000     
   3.1874999991451589       0.18750000000000000        0.0000000000000000     
   3.2500000010318297       0.18750000000000000        0.0000000000000000     
   3.3125000016623467       0.18750000000000000        0.0000000000000000     
   3.3750000003584049       0.18750000000000000        0.0000000000000000     
   3.4374999989107460       0.18750000000000000        0.0000000000000000     
   3.4999999993019508       0.18750000000000000        0.0000000000000000     
   3.5625000012717685       0.18750000000000000        0.0000000000000000     
   3.6250000031916061       0.18750000000000000        0.0000000000000000     
   3.6875000039290002       0.18750000000000000        0.0000000000000000     
   3.7500000030333491       0.18750000000000000        0.0000000000000000     
   3.8125000008787819       0.18750000000000000        0.0000000000000000     
   3.8749999991761879       0.18750000000000000        0.0000000000000000     
   3.9374999994916919       0.18750000000000000        0.0000000000000000     
   4.0000000010882433       0.18750000000000000        0.0000000000000000     
   4.0625000016681145       0.18750000000000000        0.0000000000000000     
   4.1250000003587823       0.18750000000000000        0.0000000000000000     
   4.1874999989107620       0.18750000000000000        0.0000000000000000     
   4.2499999993019504       0.18750000000000000        0.0000000000000000     
   4.3125000012717694       0.18750000000000000        0.0000000000000000     
   4.3750000031916061       0.18750000000000000        0.0000000000000000     
   4.4375000039290002       0.18750000000000000        0.0000000000000000     
   4.5000000030333487       0.18750000000000000        0.0000000000000000     
   4.5625000008787815       0.18750000000000000        0.0000000000000000     
   4.6249999991761879       0.18750000000000000        0.0000000000000000     
   4.6874999994916919       0.18750000000000000        0.0000000000000000     
   4.7500000010882433       0.18750000000000000        0.0000000000000000     
   4.8125000016681145       0.18750000000000000        0.0000000000000000     
   4.8750000003587823       0.18750000000000000        0.0000000000000000     
   4.9374999989107620       0.18750000000000000        0.0000000000000000     
   4.9999999993019504       0.18750000000000000        0.0000000000000000     
   5.0625000012717694       0.18750000000000000        0.0000000000000000     
   5.1250000031916061       0.18750000000000000        0.0000000000000000     
   5.1875000039290002       0.18750000000000000        0.0000000000000000     
   5.2500000030333576       0.18750000000000108        0.0000000000000000     
   5.3125000008796723       0.18750000000010497        0.0000000000000000     
   5.3749999992341548       0.18750000000645572        0.0000000000000000     
   5.4375000019125412       0.18750000025181651        0.0000000000000000     
   5.5000000671993652       0.18750000643897219        0.0000000000000000     
   5.5625011919519709       0.18750011196892327        0.0000000000000000     
   5.6250140622655804       0.18750138559535667        0.0000000000000000     
   5.6876065110715075       0.18751272425210383        0.0000000000000000     
   5.7504836324304502       0.18758754366043454        0.0000000000000000     
   5.8136528462153549       0.18793245937190226        0.0000000000000000     
   5.8764744726872875       0.18863480947236416        0.0000000000000000     
   5.9384689260499322       0.18882741370436068        0.0000000000000000     
   6.2402369990841276E-002  0.23317146040112297        0.0000000000000000     
  0.12483795824612587       0.24423635668622054        0.0000000000000000     
  0.18735035641647213       0.24868285638596560        0.0000000000000000     
  0.24991808520602651       0.24980589401855735        0.0000000000000000     
  0.31247414350350122       0.24998215572700158        0.0000000000000000     
  0.37499547373757636       0.24999910003309114        0.0000000000000000     
  0.43749953004252845       0.24999999061482850        0.0000000000000000     
  0.49999996953082654       0.25000000174426185        0.0000000000000000     
  0.56249999872439505       0.25000000011937701        0.0000000000000000     
  0.62499999996007105       0.25000000000381406        0.0000000000000000     
  0.68750000002594402       0.25000000000006961        0.0000000000000000     
  0.75000000006526746       0.25000000000000072        0.0000000000000000     
  0.81250000008278644       0.25000000000000000        0.0000000000000000     
  0.87500000007200174       0.25000000000000000        0.0000000000000000     
  0.93750000005206946       0.25000000000000000        0.0000000000000000     
   1.0000000000450950       0.25000000000000000        0.0000000000000000     
   1.0625000000523781       0.25000000000000000        0.0000000000000000     
   1.1250000000553220       0.25000000000000000        0.0000000000000000     
   1.1875000000382072       0.25000000000000000        0.0000000000000000     
   1.2500000000045643       0.25000000000000000        0.0000000000000000     
   1.3124999999734954       0.25000000000000000        0.0000000000000000     
   1.3749999999676306       0.25000000000000000        0.0000000000000000     
   1.4374999999968860       0.25000000000000000        0.0000000000000000     
   1.5000000000448104       0.25000000000000000        0.0000000000000000     
   1.5625000000786249       0.25000000000000000        0.0000000000000000     
   1.6250000000789904       0.25000000000000000        0.0000000000000000     
   1.6875000000568134       0.25000000000000000        0.0000000000000000     
   1.7500000000402363       0.25000000000000000        0.0000000000000000     
   1.8125000000445257       0.25000000000000000        0.0000000000000000     
   1.8750000000553066       0.25000000000000000        0.0000000000000000     
   1.9375000000458611       0.25000000000000000        0.0000000000000000     
   2.0000000000078941       0.25000000000000000        0.0000000000000000     
   2.0624999999619260       0.25000000000000000        0.0000000000000000     
   2.1249999999418496       0.25000000000000000        0.0000000000000000     
   2.1874999999672728       0.25000000000000000        0.0000000000000000     
   2.2500000000243481       0.25000000000000000        0.0000000000000000     
   2.3125000000744635       0.25000000000000000        0.0000000000000000     
   2.3750000000859792       0.25000000000000000        0.0000000000000000     
   2.4375000000615570       0.25000000000000000        0.0000000000000000     
   2.5000000000353770       0.25000000000000000        0.0000000000000000     
   2.5625000000366724       0.25000000000000000        0.0000000000000000     
   2.6250000000552909       0.25000000000000000        0.0000000000000000     
   2.6875000000535065       0.25000000000000000        0.0000000000000000     
   2.7500000000110538       0.25000000000000000        0.0000000000000000     
   2.8124999999481721       0.25000000000000000        0.0000000000000000     
   2.8749999998992113       0.25000000000000000        0.0000000000000000     
   2.9374999998625428       0.25000000000000000        0.0000000000000000     
   2.9999999997987872       0.25000000000000000        0.0000000000000000     
   3.0624999997146047       0.25000000000000000        0.0000000000000000     
   3.1249999997154330       0.25000000000000000        0.0000000000000000     
   3.1874999998861950       0.25000000000000000        0.0000000000000000     
   3.2500000001234861       0.25000000000000000        0.0000000000000000     
   3.3125000002011418       0.25000000000000000        0.0000000000000000     
   3.3750000000531473       0.25000000000000000        0.0000000000000000     
   3.4374999998884790       0.25000000000000000        0.0000000000000000     
   3.4999999999417977       0.25000000000000000        0.0000000000000000     
   3.5625000002043081       0.25000000000000000        0.0000000000000000     
   3.6250000004783876       0.25000000000000000        0.0000000000000000     
   3.6875000005830039       0.25000000000000000        0.0000000000000000     
   3.7500000004488752       0.25000000000000000        0.0000000000000000     
   3.8125000001583556       0.25000000000000000        0.0000000000000000     
   3.8749999999377707       0.25000000000000000        0.0000000000000000     
   3.9374999999630660       0.25000000000000000        0.0000000000000000     
   4.0000000001403926       0.25000000000000000        0.0000000000000000     
   4.0625000002033183       0.25000000000000000        0.0000000000000000     
   4.1250000000533165       0.25000000000000000        0.0000000000000000     
   4.1874999998884874       0.25000000000000000        0.0000000000000000     
   4.2499999999417968       0.25000000000000000        0.0000000000000000     
   4.3125000002043086       0.25000000000000000        0.0000000000000000     
   4.3750000004783889       0.25000000000000000        0.0000000000000000     
   4.4375000005830056       0.25000000000000000        0.0000000000000000     
   4.5000000004488747       0.25000000000000000        0.0000000000000000     
   4.5625000001583560       0.25000000000000000        0.0000000000000000     
   4.6249999999377707       0.25000000000000000        0.0000000000000000     
   4.6874999999630660       0.25000000000000000        0.0000000000000000     
   4.7500000001403926       0.25000000000000000        0.0000000000000000     
   4.8125000002033183       0.25000000000000000        0.0000000000000000     
   4.8750000000533165       0.25000000000000000        0.0000000000000000     
   4.9374999998884874       0.25000000000000000        0.0000000000000000     
   4.9999999999417968       0.25000000000000000        0.0000000000000000     
   5.0625000002043086       0.25000000000000000        0.0000000000000000     
   5.1250000004783889       0.25000000000000000        0.0000000000000000     
   5.1875000005830056       0.25000000000000000        0.0000000000000000     
   5.2500000004488818       0.25000000000000072        0.0000000000000000     
   5.3125000001589102       0.25000000000007178        0.0000000000000000     
   5.3749999999711093       0.25000000000417050        0.0000000000000000     
   5.4375000012237296       0.25000000015322732        0.0000000000000000     
   5.5000000306106598       0.25000000369372999        0.0000000000000000     