 VARIABLES = "X", "Y", "Z"
 ZONE F=FEPOINT, ET=QUADRILATERAL, N=         268 E=         216
  0.38324173419479929       0.71084746939755628        0.0000000000000000     
  0.69807885118038548       0.50645182560598112        0.0000000000000000     
   1.4190619379786338       0.50490528768674348        0.0000000000000000     
   1.9835365451227365       0.50568649326779147        0.0000000000000000     
   2.4983067383837141       0.50578931917345138        0.0000000000000000     
   3.0044467105009174       0.50488505401036643        0.0000000000000000     
   3.5076212034803271       0.50202054479691938        0.0000000000000000     
   4.0141537044960121       0.49822915897959447        0.0000000000000000     
   4.5701046410998210       0.49984704546191727        0.0000000000000000     
   5.2899568486868063       0.51439522661948145        0.0000000000000000     
   5.6051206270433820       0.73089482233750058        0.0000000000000000     
  0.44057666172166521        1.0388550027648538        0.0000000000000000     
  0.90745013205170844        1.0235901210196567        0.0000000000000000     
   1.4336062507996794        1.0123631954605310        0.0000000000000000     
   1.9751417039842172        1.0152788721333290        0.0000000000000000     
   2.4966223596859818        1.0145727981047408        0.0000000000000000     
   3.0170693260935995        1.0170704365377747        0.0000000000000000     
   3.5297629173960177        1.0065756800918189        0.0000000000000000     
   4.0152023809534558       0.98101793470811149        0.0000000000000000     
   4.5154728966087712       0.98224376674734981        0.0000000000000000     
   5.0388235850291947        1.0190895084184763        0.0000000000000000     
   5.5305351491709462        1.0489311009088300        0.0000000000000000     
  0.44066241035142611        1.5055796419452716        0.0000000000000000     
  0.89899158324074102        1.5076174469709223        0.0000000000000000     
   1.4103896868977155        1.5126644631989568        0.0000000000000000     
   1.9592891895300466        1.5157477417062302        0.0000000000000000     
   2.4911664629593497        1.5139565684015084        0.0000000000000000     
   3.0225816977458972        1.5309112938919438        0.0000000000000000     
   3.6377066284835733        1.5845235408478919        0.0000000000000000     
   4.0108818108413047        1.3478996404449113        0.0000000000000000     
   4.3840465426502551        1.4418304664457984        0.0000000000000000     
   4.9443036066599015        1.4967043445208366        0.0000000000000000     
   5.4945872890514336        1.5076247242920640        0.0000000000000000     
   2.4865298577341846        1.9803514699226523        0.0000000000000000     
   3.0071691019686000        2.0242415115882846        0.0000000000000000     
   3.5242664680318643        2.1145730456655949        0.0000000000000000     
   2.4898691251597853        2.4253912924656671        0.0000000000000000     
   2.9953109941532197        2.4959374761908091        0.0000000000000000     
   3.5027243217089885        2.5426083313060950        0.0000000000000000     
   2.4938373916598735        2.8905073896202591        0.0000000000000000     
   2.9947279948149763        2.9692604464919068        0.0000000000000000     
   3.4985685198580687        2.9994273375579965        0.0000000000000000     
   2.4889042164406563        3.3751743227179940        0.0000000000000000     
   2.9911354533659424        3.4559343228218249        0.0000000000000000     
   3.4975712597313029        3.4829072666824450        0.0000000000000000     
   2.4513595698305810        3.8060908622070659        0.0000000000000000     
   2.9835676332972025        4.0286116945513433        0.0000000000000000     
   3.5009294274961191        3.9111428953890015        0.0000000000000000     
  0.49865989503989444        4.5013648982114081        0.0000000000000000     
  0.99497258222947271        4.5024570863862001        0.0000000000000000     
   1.4872876308140623        4.5030408730842186        0.0000000000000000     
   1.9164797310994570        4.4992476924674483        0.0000000000000000     
   2.4616321287352054        4.4744119460995337        0.0000000000000000     
   2.9943094388297391        4.4535641513083881        0.0000000000000000     
   3.5255743326854723        4.4617468915565794        0.0000000000000000     
   4.1670833137365140        4.4561722977739997        0.0000000000000000     
   4.5457623532730036        4.4960811156792460        0.0000000000000000     
   5.0019546167801909        4.5036613051876486        0.0000000000000000     
   5.4949565681735715        4.5049159849104674        0.0000000000000000     
  0.48640850759320342        5.0007179083911959        0.0000000000000000     
  0.97548660086388295        5.0036445274518169        0.0000000000000000     
   1.4792539637886597        5.0119181623068592        0.0000000000000000     
   2.0617463256519426        5.0115069972798398        0.0000000000000000     
   2.4622370468669379        5.0018474368592214        0.0000000000000000     
   3.0003044404017216        4.9994097023877320        0.0000000000000000     
   3.5436221919795301        4.9967494708100606        0.0000000000000000     
   3.9592008418320437        4.9914733214391926        0.0000000000000000     
   4.5160876659070786        5.0023756764259986        0.0000000000000000     
   5.0003979476987652        5.0046902535476487        0.0000000000000000     
   5.4949050627119851        5.0051895742169359        0.0000000000000000     
  0.45048212044282626        5.4996544552237783        0.0000000000000000     
  0.91292312924081431        5.5028080510251858        0.0000000000000000     
   1.4242821018257168        5.5163836418506227        0.0000000000000000     
   1.9749823293352740        5.5753905549260159        0.0000000000000000     
   2.4994554707015531        5.4992293416651252        0.0000000000000000     
   3.0038792368344800        5.5400382507259778        0.0000000000000000     
   3.5403730201737815        5.5290620980160661        0.0000000000000000     
   4.0822857298711268        5.5138038432435881        0.0000000000000000     
   4.5076139141595375        5.5072135185982898        0.0000000000000000     
   4.9985774804655652        5.5030305767360863        0.0000000000000000     
   5.4966733037378805        5.5023249792139870        0.0000000000000000     
   2.2205229537956344        5.7689954403882773        0.0000000000000000     
   2.4222324175762924        5.9721451579330163        0.0000000000000000     
   3.0043571311503423        5.9396150754529007        0.0000000000000000     
   3.5458700573829058        6.1693067145297231        0.0000000000000000     
   2.4839489953926446        6.4219951825504005        0.0000000000000000     
   2.9940528385865552        6.4905366611502089        0.0000000000000000     
   3.5059160365139443        6.5465513013467218        0.0000000000000000     
   2.4946240177357817        6.8981630101502480        0.0000000000000000     
   2.9959851756087321        6.9760918741683202        0.0000000000000000     
   3.4995938900075623        7.0032950273128529        0.0000000000000000     
   2.4954780009002309        7.4184203297283515        0.0000000000000000     
   2.9964947385440968        7.4729968763006793        0.0000000000000000     
   3.4995019159884388        7.4935600349829770        0.0000000000000000     
   2.4926035620408200        7.9606096298686353        0.0000000000000000     
   2.9956998588522521        7.9777974097040145        0.0000000000000000     
   3.5003816833909536        7.9895628328000949        0.0000000000000000     
  0.49071047251871880        8.4949971376131401        0.0000000000000000     
  0.98321794434229004        8.4954459839984491        0.0000000000000000     
   1.4806672065267998        8.4963211007991912        0.0000000000000000     
   1.9806620970536679        8.4911061038741877        0.0000000000000000     
   2.4819295351650990        8.4837885858690356        0.0000000000000000     
   2.9875519053774093        8.4829587552436880        0.0000000000000000     
   3.4941541417958919        8.4877781734682376        0.0000000000000000     
   3.9979376398451425        8.4937382906914518        0.0000000000000000     
   4.5009711122807463        8.4978231898895142        0.0000000000000000     
   5.0024822697920825        8.4981355077199368        0.0000000000000000     
   5.5013990505533448        8.4986820741297784        0.0000000000000000     
  0.45061606775568880        8.9617849617477674        0.0000000000000000     
  0.91438335293406880        8.9794515617387312        0.0000000000000000     
   1.4219516184776382        8.9953964612638089        0.0000000000000000     
   1.9414400842200124        8.9935239629146420        0.0000000000000000     
   2.4482817811756026        8.9899625099150740        0.0000000000000000     
   2.9539929366886417        8.9887552083561637        0.0000000000000000     
   3.4605978221829887        8.9905128068895266        0.0000000000000000     
   3.9725211868778523        8.9943830252477923        0.0000000000000000     
   4.5078581658833041        8.9970012417364629        0.0000000000000000     
   5.0426367820241991        8.9825235054756849        0.0000000000000000     
   5.5324690621072650        8.9661471184629153        0.0000000000000000     
  0.37692016270090550        9.2895161073858006        0.0000000000000000     
  0.65290334356061841        9.4947144425827616        0.0000000000000000     
   1.3204524995243445        9.4978094105153232        0.0000000000000000     
   1.8620482672008467        9.4971344833351647        0.0000000000000000     
   2.3701118205776730        9.4956197519235221        0.0000000000000000     
   2.8733905932317363        9.4950346244336696        0.0000000000000000     
   3.3774872324327991        9.4957051166174615        0.0000000000000000     
   3.8918666878801171        9.4974317753090016        0.0000000000000000     
   4.4722418601288618        9.4986225682848904        0.0000000000000000     
   5.2452843346204805        9.4961209940057181        0.0000000000000000     
   5.6003802765622304        9.2922845741096793        0.0000000000000000     
   2.1853783367190229        4.2528236391014786        0.0000000000000000     
   2.3720787740557610        4.1527548915562358        0.0000000000000000     
   2.2191433055584535        4.4859370599081343        0.0000000000000000     
   2.6866836961811957        4.2372501727840080        0.0000000000000000     
   2.7225045733877891        4.4621804733749517        0.0000000000000000     
   3.2805483993966349        4.2587295841813999        0.0000000000000000     
   3.5141958719351236        4.2167085825842081        0.0000000000000000     
   3.2611334819418589        4.4674533544593853        0.0000000000000000     
   3.7478578391727386        4.1853576359180567        0.0000000000000000     
   3.8460430960664858        4.3738623176742664        0.0000000000000000     
   2.2637487493501327        4.7191503879303571        0.0000000000000000     
   2.4703749133746928        4.7383821777454935        0.0000000000000000     
   2.7359985896967083        4.7373714149892008        0.0000000000000000     
   2.9985874449360796        4.7360178352195303        0.0000000000000000     
   2.7384085901574444        4.9995552424008025        0.0000000000000000     
   3.2620494504812543        4.7355564065060740        0.0000000000000000     
   3.5365464299787979        4.7240074546053199        0.0000000000000000     
   3.2632573295847433        4.9987298072801618        0.0000000000000000     
   3.7591931555879960        4.6899302665990916        0.0000000000000000     
   2.2798972171069294        5.2896252139225535        0.0000000000000000     
   2.4812095603896465        5.2596723537903314        0.0000000000000000     
   2.2730843246519430        5.4965667950515025        0.0000000000000000     
   2.7419836118978367        5.2585425353840902        0.0000000000000000     
   3.0018365980058292        5.2619645305080009        0.0000000000000000     
   2.7420039975483963        5.5182778951431244        0.0000000000000000     
   3.2640433266438222        5.2621744839255822        0.0000000000000000     
   3.5302815446331750        5.2636553344331496        0.0000000000000000     
   3.2767609016546677        5.5363268982500120        0.0000000000000000     
   3.7356975433442021        5.2874374387985741        0.0000000000000000     
   3.7832716286156902        5.5233079975136619        0.0000000000000000     
   2.3028825056629323        5.6901387371724841        0.0000000000000000     
   2.5026776328424236        5.7178891737582660        0.0000000000000000     
   2.7129061924141569        5.7151787775096672        0.0000000000000000     
   3.3120195724650916        5.7590275867390508        0.0000000000000000     
   3.6304591030949824        5.8505674825327478        0.0000000000000000     
   3.8254783757496074        5.7575950572737113        0.0000000000000000     
   0.0000000000000000       0.99999999985512766        0.0000000000000000     
   0.0000000000000000       0.56250001446731424        0.0000000000000000     
   0.0000000000000000       0.28125000723365723        0.0000000000000000     
   0.0000000000000000        0.0000000000000000        0.0000000000000000     
  0.75000001139317440        0.0000000000000000        0.0000000000000000     
   1.5000000227863488        0.0000000000000000        0.0000000000000000     
   2.0000000385795027        0.0000000000000000        0.0000000000000000     
   2.4999999614204973        0.0000000000000000        0.0000000000000000     
   3.0000000004346070        0.0000000000000000        0.0000000000000000     
   3.5000000385795031        0.0000000000000000        0.0000000000000000     
   3.9999999614204982        0.0000000000000000        0.0000000000000000     
   4.5000002451380929        0.0000000000000000        0.0000000000000000     
   5.2500001225690465        0.0000000000000000        0.0000000000000000     
   6.0000000000000000        0.0000000000000000        0.0000000000000000     
   6.0000000000000000       0.30468750301402386        0.0000000000000000     
   6.0000000000000000       0.60937500602804773        0.0000000000000000     
   6.0000000000000000        1.0078124609520651        0.0000000000000000     
   6.0000000000000000        1.5039062304760327        0.0000000000000000     
   6.0000000000000000        2.0000000000000000        0.0000000000000000     
   5.4999999999275655        2.0000000000000000        0.0000000000000000     
   4.9999999998551310        2.0000000000000000        0.0000000000000000     
   4.0000000000000000        2.0000000000000000        0.0000000000000000     
   4.0000000000000000        2.2773437633732314        0.0000000000000000     
   4.0000000000000000        2.5078125351857272        0.0000000000000000     
   4.0000000000000000        3.0000000001448699        0.0000000000000000     
   4.0000000000000000        3.4960937598790922        0.0000000000000000     
   4.0000000000000000        4.0000000000000000        0.0000000000000000     
   4.0292968800867452        4.0000000000000000        0.0000000000000000     
   4.2812500001471996        4.0000000000000000        0.0000000000000000     
   4.5039062401209087        4.0000000000000000        0.0000000000000000     
   4.9921875390479347        4.0000000000000000        0.0000000000000000     
   5.4960937695239673        4.0000000000000000        0.0000000000000000     
   6.0000000000000000        4.0000000000000000        0.0000000000000000     
   6.0000000000000000        4.5039062304760327        0.0000000000000000     
   6.0000000000000000        5.0078124609520653        0.0000000000000000     
   6.0000000000000000        5.5039062304760327        0.0000000000000000     
   6.0000000000000000        6.0000000000000000        0.0000000000000000     
   5.4999999999275655        6.0000000000000000        0.0000000000000000     
   4.9999999998551301        6.0000000000000000        0.0000000000000000     
   4.4999999182873012        6.0000000000000000        0.0000000000000000     
   4.0000000000000000        6.0000000000000000        0.0000000000000000     
   4.0000000000000000        6.0390624993971969        0.0000000000000000     
   4.0000000000000000        6.2929687669900609        0.0000000000000000     
   4.0000000000000000        6.5078125351857281        0.0000000000000000     
   4.0000000000000000        7.0000000001448690        0.0000000000000000     
   4.0000000000000000        7.5000000817126988        0.0000000000000000     
   4.0000000000000000        8.0000000000000000        0.0000000000000000     
   4.5000000075954514        8.0000000000000000        0.0000000000000000     
   4.9921875390479356        8.0000000000000000        0.0000000000000000     
   5.4960937695239682        8.0000000000000000        0.0000000000000000     
   6.0000000000000000        8.0000000000000000        0.0000000000000000     
   6.0000000000000000        8.5039062304760336        0.0000000000000000     
   6.0000000000000000        9.0078124609520653        0.0000000000000000     
   6.0000000000000000        9.4374999855326891        0.0000000000000000     
   6.0000000000000000        9.7187499927663445        0.0000000000000000     
   6.0000000000000000        10.000000000000000        0.0000000000000000     
   5.1249999846585350        10.000000000000000        0.0000000000000000     
   4.2499999693170700        10.000000000000000        0.0000000000000000     
   3.7500000000000000        10.000000000000000        0.0000000000000000     
   3.2500000190724521        10.000000000000000        0.0000000000000000     
   2.7499999804929516        10.000000000000000        0.0000000000000000     
   2.2500000000000000        10.000000000000000        0.0000000000000000     
   1.7499998967207127        10.000000000000000        0.0000000000000000     
   1.2499998581412122        10.000000000000000        0.0000000000000000     
  0.62499992907060609        10.000000000000000        0.0000000000000000     
   0.0000000000000000        10.000000000000000        0.0000000000000000     
   0.0000000000000000        9.7187499927663428        0.0000000000000000     
   0.0000000000000000        9.4374999855326855        0.0000000000000000     
   0.0000000000000000        8.9999999998551274        0.0000000000000000     
   0.0000000000000000        8.4999999999275637        0.0000000000000000     
   0.0000000000000000        8.0000000000000000        0.0000000000000000     
  0.50000000007243439        8.0000000000000000        0.0000000000000000     
   1.0000000001448688        8.0000000000000000        0.0000000000000000     
   1.5000000817127013        8.0000000000000000        0.0000000000000000     
   2.0000000000000000        8.0000000000000000        0.0000000000000000     
   2.0000000000000000        7.2773437262564009        0.0000000000000000     
   2.0000000000000000        6.7539061896196806        0.0000000000000000     
   2.0000000000000000        6.2851561872084645        0.0000000000000000     
   2.0000000000000000        6.0000000000000000        0.0000000000000000     
   1.2499999961298336        6.0000000000000000        0.0000000000000000     
  0.78125000716122273        6.0000000000000000        0.0000000000000000     
  0.39062500358061136        6.0000000000000000        0.0000000000000000     
   0.0000000000000000        6.0000000000000000        0.0000000000000000     
   0.0000000000000000        5.4999999999275646        0.0000000000000000     
   0.0000000000000000        4.9999999998551292        0.0000000000000000     
   0.0000000000000000        4.4999999999275646        0.0000000000000000     
   0.0000000000000000        4.0000000000000000        0.0000000000000000     
  0.50000000007243617        4.0000000000000000        0.0000000000000000     
   1.0000000001448723        4.0000000000000000        0.0000000000000000     
   1.4960937598790940        4.0000000000000000        0.0000000000000000     
   2.0000000000000000        4.0000000000000000        0.0000000000000000     
   2.0000000000000000        3.9746093770145166        0.0000000000000000     
   2.0000000000000000        3.7460937623792958        0.0000000000000000     
   2.0000000000000000        3.2753906158408199        0.0000000000000000     
   2.0000000000000000        2.7539061896196841        0.0000000000000000     
   2.0000000000000000        2.2851561872084645        0.0000000000000000     
   2.0000000000000000        2.0000000000000000        0.0000000000000000     
   1.2499999961298371        2.0000000000000000        0.0000000000000000     
  0.78125000716121917        2.0000000000000000        0.0000000000000000     
  0.39062500358060959        2.0000000000000000        0.0000000000000000     
   0.0000000000000000        2.0000000000000000        0.0000000000000000     
   0.0000000000000000        1.4999999999275637        0.0000000000000000     
           1           2          13          12
           2           3          14          13
           3           4          15          14
           4           5          16          15
           5           6          17          16
           6           7          18          17
           7           8          19          18
           8           9          20          19
           9          10          21          20
          10          11          22          21
          12          13          24          23
          13          14          25          24
          14          15          26          25
          15          16          27          26
          16          17          28          27
          17          18          29          28
          18          19          30          29
          19          20          31          30
          20          21          32          31
          21          22          33          32
          27          28          35          34
          28          29          36          35
          34          35          38          37
          35          36          39          38
          37          38          41          40
          38          39          42          41
          40          41          44          43
          41          42          45          44
          43          44          47          46
          44          45          48          47
          49          50          61          60
          50          51          62          61
          51          52          63          62
          56          57          68          67
          57          58          69          68
          58          59          70          69
          60          61          72          71
          61          62          73          72
          62          63          74          73
          67          68          79          78
          68          69          80          79
          69          70          81          80
          83          84          87          86
          84          85          88          87
          86          87          90          89
          87          88          91          90
          89          90          93          92
          90          91          94          93
          92          93          96          95
          93          94          97          96
          95          96         103         102
          96          97         104         103
          98          99         110         109
          99         100         111         110
         100         101         112         111
         101         102         113         112
         102         103         114         113
         103         104         115         114
         104         105         116         115
         105         106         117         116
         106         107         118         117
         107         108         119         118
         109         110         121         120
         110         111         122         121
         111         112         123         122
         112         113         124         123
         113         114         125         124
         114         115         126         125
         115         116         127         126
         116         117         128         127
         117         118         129         128
         118         119         130         129
         131         132          53         133
          46          47         134         132
         132         134         135          53
         134          47          54         135
          47          48         137         136
          47         136         138          54
         136         137          55         138
         137         139         140          55
          52         133         141          63
         133          53         142         141
         141         142          64          63
          53         135         143         142
         135          54         144         143
         142         143         145          64
         143         144          65         145
          54         138         146         144
         138          55         147         146
         144         146         148          65
         146         147          66         148
          55         140         149         147
         140          56          67         149
         147         149          67          66
          63          64         151         150
          63         150         152          74
         150         151          75         152
          64         145         153         151
         145          65         154         153
         151         153         155          75
         153         154          76         155
          65         148         156         154
         148          66         157         156
         154         156         158          76
         156         157          77         158
          66          67         159         157
         157         159         160          77
         159          67          78         160
          74         152         161          82
         152          75         162         161
         161         162          83          82
          75         155         163         162
         155          76          84         163
         162         163          84          83
          76         158         164          84
         158          77         165         164
         164         165          85          84
          77         160         166         165
          12         167         168           1
           1         168         169           2
           2         169         170         171
           2         171         172           3
           3         172         173           4
           4         173         174           5
           5         174         175           6
           6         175         176           7
           7         176         177           8
           8         177         178           9
           9         178         179          10
          10         179         180         181
          10         181         182          11
          11         182         183          22
          22         183         184          33
          33         184         185         186
          33         186         187          32
          32         187         188          31
          31         188          29          30
          29         188         189          36
          36         189         190          39
          39         190         191          42
          42         191         192          45
          45         192         193          48
          48         193         139         137
         139         193         194         140
         140         194         195          56
          56         195         196          57
          57         196         197          58
          58         197         198          59
          59         198         199         200
          59         200         201          70
          70         201         202          81
          81         202         203         204
          81         204         205          80
          80         205         206          79
          79         206         207          78
          78         207         166         160
         166         207         208         165
         165         208         209          85
          85         209         210          88
          88         210         211          91
          91         211         212          94
          94         212         213          97
          97         213         105         104
         105         213         214         106
         106         214         215         107
         107         215         216         108
         108         216         217         218
         108         218         219         119
         119         219         220         130