 VARIABLES = "X", "Y", "Z"
 ZONE F=FEPOINT, ET=QUADRILATERAL, N=       12605 E=       12176
   2.4431390806615005E-002   4.3331888071385549E-002   0.0000000000000000     
   4.4052767100277453E-002   3.1517076653780847E-002   0.0000000000000000     
   8.9098059938113774E-002   3.1294010667821351E-002   0.0000000000000000     
  0.12420936197393374        3.1258649742275615E-002   0.0000000000000000     
  0.15614187806655183        3.1252213166253894E-002   0.0000000000000000     
  0.18748931624523746        3.1250377817065043E-002   0.0000000000000000     
  0.21874926277399404        3.1250038568654590E-002   0.0000000000000000     
  0.24999996481749570        3.1250002416802869E-002   0.0000000000000000     
  0.28124999770028891        3.1250000095025821E-002   0.0000000000000000     
  0.31249999873932083        3.1250000002358745E-002   0.0000000000000000     
  0.34375000008871087        3.1250000000036603E-002   0.0000000000000000     
  0.37500000360596569        3.1250000000000347E-002   0.0000000000000000     
  0.40625000433403147        3.1250000000000000E-002   0.0000000000000000     
  0.43750000234480912        3.1250000000000000E-002   0.0000000000000000     
  0.46875000150556628        3.1250000000000000E-002   0.0000000000000000     
  0.50000000023384483        3.1250000000000000E-002   0.0000000000000000     
  0.53125000222213459        3.1250000000000000E-002   0.0000000000000000     
  0.56250000315204951        3.1250000000000000E-002   0.0000000000000000     
  0.59375000154999280        3.1250000000000000E-002   0.0000000000000000     
  0.62500000042978721        3.1250000000000000E-002   0.0000000000000000     
  0.65624999824265629        3.1250000000000000E-002   0.0000000000000000     
  0.68749999749177004        3.1250000000000000E-002   0.0000000000000000     
  0.71874999873121581        3.1250000000000000E-002   0.0000000000000000     
  0.75000000243233833        3.1250000000000000E-002   0.0000000000000000     
  0.78125000431367875        3.1250000000000000E-002   0.0000000000000000     
  0.81250000337964734        3.1250000000000000E-002   0.0000000000000000     
  0.84375000205974970        3.1250000000000000E-002   0.0000000000000000     
  0.87499999967947151        3.1250000000000000E-002   0.0000000000000000     
  0.90625000118501453        3.1250000000000000E-002   0.0000000000000000     
  0.93750000315203097        3.1250000000000000E-002   0.0000000000000000     
  0.96875000258677091        3.1250000000000000E-002   0.0000000000000000     
   1.0000000009799386        3.1250000000000000E-002   0.0000000000000000     
   1.0312499976519520        3.1250000000000000E-002   0.0000000000000000     
   1.0624999962197477        3.1250000000000000E-002   0.0000000000000000     
   1.0937499973733762        3.1250000000000000E-002   0.0000000000000000     
   1.1250000012587076        3.1250000000000000E-002   0.0000000000000000     
   1.1562500042933261        3.1250000000000000E-002   0.0000000000000000     
   1.1875000044144857        3.1250000000000000E-002   0.0000000000000000     
   1.2187500026139333        3.1250000000000000E-002   0.0000000000000000     
   1.2499999991250983        3.1250000000000000E-002   0.0000000000000000     
   1.2812500001478944        3.1250000000000000E-002   0.0000000000000000     
   1.3125000031520120        3.1250000000000000E-002   0.0000000000000000     
   1.3437500036235415        3.1250000000000000E-002   0.0000000000000000     
   1.3750000015298836        3.1250000000000000E-002   0.0000000000000000     
   1.4062499970574800        3.1250000000000000E-002   0.0000000000000000     
   1.4374999949011609        3.1250000000000000E-002   0.0000000000000000     
   1.4687499956128773        3.1250000000000000E-002   0.0000000000000000     
   1.4999999974724594        3.1250000000000000E-002   0.0000000000000000     
   1.5312499891167761        3.1250000000000000E-002   0.0000000000000000     
   1.5624999799598560        3.1250000000000000E-002   0.0000000000000000     
   1.5937499905636539        3.1250000000000000E-002   0.0000000000000000     
   1.6250000109194025        3.1250000000000000E-002   0.0000000000000000     
   1.6562500222324319        3.1250000000000000E-002   0.0000000000000000     
   1.6875000030387663        3.1250000000000000E-002   0.0000000000000000     
   1.7187499813394973        3.1250000000000000E-002   0.0000000000000000     
   1.7499999897408554        3.1250000000000000E-002   0.0000000000000000     
   1.7812500099284343        3.1250000000000000E-002   0.0000000000000000     
   1.8125000226110928        3.1250000000000000E-002   0.0000000000000000     
   1.8437500256293635        3.1250000000000000E-002   0.0000000000000000     
   1.8750000257431465        3.1250000000000000E-002   0.0000000000000000     
   1.9062500046015949        3.1250000000000000E-002   0.0000000000000000     
   1.9374999826023733        3.1250000000000000E-002   0.0000000000000000     
   1.9687499909671895        3.1250000000000000E-002   0.0000000000000000     
   2.0000000109658269        3.1250000000000000E-002   0.0000000000000000     
   2.0312500222361787        3.1250000000000000E-002   0.0000000000000000     
   2.0625000030389713        3.1250000000000000E-002   0.0000000000000000     
   2.0937499813395046        3.1250000000000000E-002   0.0000000000000000     
   2.1249999897408554        3.1250000000000000E-002   0.0000000000000000     
   2.1562500099284336        3.1250000000000000E-002   0.0000000000000000     
   2.1875000226110926        3.1250000000000000E-002   0.0000000000000000     
   2.2187500256293640        3.1250000000000000E-002   0.0000000000000000     
   2.2500000257431463        3.1250000000000000E-002   0.0000000000000000     
   2.2812500046015951        3.1250000000000000E-002   0.0000000000000000     
   2.3124999826023731        3.1250000000000000E-002   0.0000000000000000     
   2.3437499909671895        3.1250000000000000E-002   0.0000000000000000     
   2.3750000109658265        3.1250000000000000E-002   0.0000000000000000     
   2.4062500222361787        3.1250000000000000E-002   0.0000000000000000     
   2.4375000030389713        3.1250000000000000E-002   0.0000000000000000     
   2.4687499813395046        3.1250000000000000E-002   0.0000000000000000     
   2.4999999897408554        3.1250000000000000E-002   0.0000000000000000     
   2.5312500099284336        3.1250000000000000E-002   0.0000000000000000     
   2.5625000226110926        3.1250000000000000E-002   0.0000000000000000     
   2.5937500256293640        3.1250000000000000E-002   0.0000000000000000     
   2.6250000257431494        3.1250000000000347E-002   0.0000000000000000     
   2.6562500046019393        3.1250000000036950E-002   0.0000000000000000     
   2.6874999826268446        3.1250000002417032E-002   0.0000000000000000     
   2.7187499921002547        3.1250000100603845E-002   0.0000000000000000     
   2.7500000460277976        3.1250002740137617E-002   0.0000000000000000     
   2.7812507599723060        3.1250050261893494E-002   0.0000000000000000     
   2.8125106899074304        3.1250646282616382E-002   0.0000000000000000     
   2.8438581061979540        3.1256159134676095E-002   0.0000000000000000     
   2.8757906263585107        3.1295858378528239E-002   0.0000000000000000     
   2.9109019380256398        3.1517663057624330E-002   0.0000000000000000     
   2.9559472326131897        3.2330840655717986E-002   0.0000000000000000     
   2.9755686091549314        4.5795632569868856E-002   0.0000000000000000     
   2.8673072993735674E-002   6.0043573059562032E-002   0.0000000000000000     
   5.8489047794529007E-002   6.2352714871032257E-002   0.0000000000000000     
   9.1186036482523256E-002   6.2398657457023506E-002   0.0000000000000000     
  0.12431553349146211        6.2488651449919053E-002   0.0000000000000000     
  0.15613831576598286        6.2500782866851581E-002   0.0000000000000000     
  0.18748775300072248        6.2500372754814335E-002   0.0000000000000000     
  0.21874909074941104        6.2500047415942533E-002   0.0000000000000000     
  0.24999995420381982        6.2500003255803724E-002   0.0000000000000000     
  0.28124999813539187        6.2500000134795827E-002   0.0000000000000000     
  0.31249999968038850        6.2500000003466366E-002   0.0000000000000000     
  0.34375000024867858        6.2500000000055275E-002   0.0000000000000000     
  0.37500000101236192        6.2500000000000541E-002   0.0000000000000000     
  0.40625000127651534        6.2500000000000000E-002   0.0000000000000000     
  0.43750000094610852        6.2500000000000000E-002   0.0000000000000000     
  0.46875000052562099        6.2500000000000000E-002   0.0000000000000000     
  0.50000000040982906        6.2500000000000000E-002   0.0000000000000000     
  0.53125000069772155        6.2500000000000000E-002   0.0000000000000000     
  0.56250000087467944        6.2500000000000000E-002   0.0000000000000000     
  0.59375000058850202        6.2500000000000000E-002   0.0000000000000000     
  0.62500000005670808        6.2500000000000000E-002   0.0000000000000000     
  0.65624999951563034        6.2500000000000000E-002   0.0000000000000000     
  0.68749999932059169        6.2500000000000000E-002   0.0000000000000000     
  0.71874999979502918        6.2500000000000000E-002   0.0000000000000000     
  0.75000000068921280        6.2500000000000000E-002   0.0000000000000000     
  0.78125000125629984        6.2500000000000000E-002   0.0000000000000000     
  0.81250000115788590        6.2500000000000000E-002   0.0000000000000000     
  0.84375000065571193        6.2500000000000000E-002   0.0000000000000000     
  0.87500000027950664        6.2500000000000000E-002   0.0000000000000000     
  0.90625000048338766        6.2500000000000000E-002   0.0000000000000000     
  0.93750000087465524        6.2500000000000000E-002   0.0000000000000000     
  0.96875000080242091        6.2500000000000000E-002   0.0000000000000000     
   1.0000000001823326        6.2500000000000000E-002   0.0000000000000000     
   1.0312499993497584        6.2500000000000000E-002   0.0000000000000000     
   1.0624999989261263        6.2500000000000000E-002   0.0000000000000000     
   1.0937499993408766        6.2500000000000000E-002   0.0000000000000000     
   1.1250000003660590        6.2500000000000000E-002   0.0000000000000000     
   1.1562500012360843        6.2500000000000000E-002   0.0000000000000000     
   1.1875000013696630        6.2500000000000000E-002   0.0000000000000000     
   1.2187500007858028        6.2500000000000000E-002   0.0000000000000000     
   1.2500000001491840        6.2500000000000000E-002   0.0000000000000000     
   1.2812500002690537        6.2500000000000000E-002   0.0000000000000000     
   1.3125000008746308        6.2500000000000000E-002   0.0000000000000000     
   1.3437500010163297        6.2500000000000000E-002   0.0000000000000000     
   1.3750000003076903        6.2500000000000000E-002   0.0000000000000000     
   1.4062499991793200        6.2500000000000000E-002   0.0000000000000000     
   1.4374999984798458        6.2500000000000000E-002   0.0000000000000000     
   1.4687499984922838        6.2500000000000000E-002   0.0000000000000000     
   1.4999999980322445        6.2500000000000000E-002   0.0000000000000000     
   1.5312499960351675        6.2500000000000000E-002   0.0000000000000000     
   1.5624999948464358        6.2500000000000000E-002   0.0000000000000000     
   1.5937499976683638        6.2500000000000000E-002   0.0000000000000000     
   1.6250000028938414        6.2500000000000000E-002   0.0000000000000000     
   1.6562500048217195        6.2500000000000000E-002   0.0000000000000000     
   1.6875000008369192        6.2500000000000000E-002   0.0000000000000000     
   1.7187499964109814        6.2500000000000000E-002   0.0000000000000000     
   1.7499999976304976        6.2500000000000000E-002   0.0000000000000000     
   1.7812500028128966        6.2500000000000000E-002   0.0000000000000000     
   1.8125000071218453        6.2500000000000000E-002   0.0000000000000000     
   1.8437500087891789        6.2500000000000000E-002   0.0000000000000000     
   1.8750000070883048        6.2500000000000000E-002   0.0000000000000000     
   1.9062500016169655        6.2500000000000000E-002   0.0000000000000000     
   1.9374999968975133        6.2500000000000000E-002   0.0000000000000000     
   1.9687499980645891        6.2500000000000000E-002   0.0000000000000000     
   2.0000000029455380        6.2500000000000000E-002   0.0000000000000000     
   2.0312500048262616        6.2500000000000000E-002   0.0000000000000000     
   2.0625000008371841        6.2500000000000000E-002   0.0000000000000000     
   2.0937499964109909        6.2500000000000000E-002   0.0000000000000000     
   2.1249999976304972        6.2500000000000000E-002   0.0000000000000000     
   2.1562500028128966        6.2500000000000000E-002   0.0000000000000000     
   2.1875000071218453        6.2500000000000000E-002   0.0000000000000000     
   2.2187500087891792        6.2500000000000000E-002   0.0000000000000000     
   2.2500000070883051        6.2500000000000000E-002   0.0000000000000000     
   2.2812500016169652        6.2500000000000000E-002   0.0000000000000000     
   2.3124999968975133        6.2500000000000000E-002   0.0000000000000000     
   2.3437499980645891        6.2500000000000000E-002   0.0000000000000000     
   2.3750000029455380        6.2500000000000000E-002   0.0000000000000000     
   2.4062500048262616        6.2500000000000000E-002   0.0000000000000000     
   2.4375000008371841        6.2500000000000000E-002   0.0000000000000000     
   2.4687499964109909        6.2500000000000000E-002   0.0000000000000000     
   2.4999999976304972        6.2500000000000000E-002   0.0000000000000000     
   2.5312500028128966        6.2500000000000000E-002   0.0000000000000000     
   2.5625000071218453        6.2500000000000000E-002   0.0000000000000000     
   2.5937500087891792        6.2500000000000000E-002   0.0000000000000000     
   2.6250000070883091        6.2500000000000541E-002   0.0000000000000000     
   2.6562500016174688        6.2500000000055941E-002   0.0000000000000000     
   2.6874999969321824        6.2500000003576736E-002   0.0000000000000000     
   2.7187499996106914        6.2500000145354465E-002   0.0000000000000000     
   2.7500000486725829        6.2500003868274465E-002   0.0000000000000000     
   2.7812509144476829        6.2500069620233412E-002   0.0000000000000000     
   2.8125122486684222        6.2500885310741383E-002   0.0000000000000000     
   2.8438616812285518        6.2508396838165767E-002   0.0000000000000000     
   2.8756844629685698        6.2561960806563982E-002   0.0000000000000000     
   2.9088139619818398        6.2860452243858667E-002   0.0000000000000000     
   2.9415109518957649        6.4317679157099447E-002   0.0000000000000000     
   2.9713269269657130        6.5752998655276465E-002   0.0000000000000000     
   3.0765536952664173E-002   8.6020196043634159E-002   0.0000000000000000     
   6.1762763522998081E-002   9.1560379339416548E-002   0.0000000000000000     
   9.3173576464907856E-002   9.3322240625072356E-002   0.0000000000000000     
  0.12475818306423930        9.3692780504822770E-002   0.0000000000000000     
  0.15619674397518160        9.3745945150885981E-002   0.0000000000000000     
  0.18749296921061570        9.3749993761724604E-002   0.0000000000000000     
  0.21874940495146694        9.3750025724240668E-002   0.0000000000000000     
  0.24999996693856719        9.3750002384122760E-002   0.0000000000000000     
  0.28124999872736778        9.3750000111481005E-002   0.0000000000000000     
  0.31249999993055044        9.3750000003076664E-002   0.0000000000000000     
  0.34375000007460976        9.3750000000051584E-002   0.0000000000000000     
  0.37500000021899538        9.3750000000000527E-002   0.0000000000000000     
  0.40625000027836700        9.3750000000000000E-002   0.0000000000000000     
  0.43750000022733637        9.3750000000000000E-002   0.0000000000000000     
  0.46875000014723756        9.3750000000000000E-002   0.0000000000000000     
  0.50000000012481460        9.3750000000000000E-002   0.0000000000000000     
  0.53125000016474799        9.3750000000000000E-002   0.0000000000000000     
  0.56250000018733459        9.3750000000000000E-002   0.0000000000000000     
  0.59375000013030199        9.3750000000000000E-002   0.0000000000000000     
  0.62500000001318379        9.3750000000000000E-002   0.0000000000000000     
  0.65624999990092259        9.3750000000000000E-002   0.0000000000000000     
  0.68749999987248589        9.3750000000000000E-002   0.0000000000000000     
  0.71874999997453737        9.3750000000000000E-002   0.0000000000000000     
  0.75000000014985624        9.3750000000000000E-002   0.0000000000000000     
  0.78125000026932157        9.3750000000000000E-002   0.0000000000000000     
  0.81250000026071301        9.3750000000000000E-002   0.0000000000000000     
  0.84375000016854795        9.3750000000000000E-002   0.0000000000000000     
  0.87500000010335532        9.3750000000000000E-002   0.0000000000000000     
  0.90625000012996026        9.3750000000000000E-002   0.0000000000000000     
  0.93750000018731738        9.3750000000000000E-002   0.0000000000000000     
  0.96875000016482637        9.3750000000000000E-002   0.0000000000000000     
   1.0000000000320837        9.3750000000000000E-002   0.0000000000000000     
   1.0312499998640465        9.3750000000000000E-002   0.0000000000000000     
   1.0624999997854376        9.3750000000000000E-002   0.0000000000000000     
   1.0937499998740201        9.3750000000000000E-002   0.0000000000000000     
   1.1250000000807130        9.3750000000000000E-002   0.0000000000000000     
   1.1562500002602758        9.3750000000000000E-002   0.0000000000000000     
   1.1875000002940892        9.3750000000000000E-002   0.0000000000000000     
   1.2187500001898584        9.3750000000000000E-002   0.0000000000000000     
   1.2500000000818958        9.3750000000000000E-002   0.0000000000000000     
   1.2812500000951721        9.3750000000000000E-002   0.0000000000000000     
   1.3125000001873000        9.3750000000000000E-002   0.0000000000000000     
   1.3437500001993428        9.3750000000000000E-002   0.0000000000000000     
   1.3750000000507940        9.3750000000000000E-002   0.0000000000000000     
   1.4062499998242726        9.3750000000000000E-002   0.0000000000000000     
   1.4374999996701645        9.3750000000000000E-002   0.0000000000000000     
   1.4687499996019850        9.3750000000000000E-002   0.0000000000000000     
   1.4999999994224276        9.3750000000000000E-002   0.0000000000000000     
   1.5312499990709860        9.3750000000000000E-002   0.0000000000000000     
   1.5624999989727035        9.3750000000000000E-002   0.0000000000000000     
   1.5937499995725795        9.3750000000000000E-002   0.0000000000000000     
   1.6250000005159149        9.3750000000000000E-002   0.0000000000000000     
   1.6562500008311734        9.3750000000000000E-002   0.0000000000000000     
   1.6875000001792024        9.3750000000000000E-002   0.0000000000000000     
   1.7187499994553730        9.3750000000000000E-002   0.0000000000000000     
   1.7499999996509754        9.3750000000000000E-002   0.0000000000000000     
   1.7812500006358842        9.3750000000000000E-002   0.0000000000000000     
   1.8125000015958030        9.3750000000000000E-002   0.0000000000000000     
   1.8437500019645001        9.3750000000000000E-002   0.0000000000000000     
   1.8750000015166746        9.3750000000000000E-002   0.0000000000000000     
   1.9062500004393910        9.3750000000000000E-002   0.0000000000000000     
   1.9374999995880939        9.3750000000000000E-002   0.0000000000000000     
   1.9687499997458460        9.3750000000000000E-002   0.0000000000000000     
   2.0000000005441216        9.3750000000000000E-002   0.0000000000000000     
   2.0312500008340573        9.3750000000000000E-002   0.0000000000000000     
   2.0625000001793912        9.3750000000000000E-002   0.0000000000000000     
   2.0937499994553810        9.3750000000000000E-002   0.0000000000000000     
   2.1249999996509752        9.3750000000000000E-002   0.0000000000000000     
   2.1562500006358847        9.3750000000000000E-002   0.0000000000000000     
   2.1875000015958030        9.3750000000000000E-002   0.0000000000000000     
   2.2187500019645001        9.3750000000000000E-002   0.0000000000000000     
   2.2500000015166743        9.3750000000000000E-002   0.0000000000000000     
   2.2812500004393907        9.3750000000000000E-002   0.0000000000000000     
   2.3124999995880939        9.3750000000000000E-002   0.0000000000000000     
   2.3437499997458460        9.3750000000000000E-002   0.0000000000000000     
   2.3750000005441216        9.3750000000000000E-002   0.0000000000000000     
   2.4062500008340573        9.3750000000000000E-002   0.0000000000000000     
   2.4375000001793912        9.3750000000000000E-002   0.0000000000000000     
   2.4687499994553810        9.3750000000000000E-002   0.0000000000000000     
   2.4999999996509752        9.3750000000000000E-002   0.0000000000000000     
   2.5312500006358847        9.3750000000000000E-002   0.0000000000000000     
   2.5625000015958030        9.3750000000000000E-002   0.0000000000000000     
   2.5937500019645001        9.3750000000000000E-002   0.0000000000000000     
   2.6250000015166788        9.3750000000000541E-002   0.0000000000000000     
   2.6562500004398362        9.3750000000052486E-002   0.0000000000000000     
   2.6874999996170774        9.3750000003227862E-002   0.0000000000000000     
   2.7187500009562706        9.3750000125908256E-002   0.0000000000000000     
   2.7500000335996826        9.3750003219486094E-002   0.0000000000000000     
   2.7812505959759855        9.3750055984461636E-002   0.0000000000000000     
   2.8125070311327902        9.3750692797678337E-002   0.0000000000000000     
   2.8438032555357537        9.3756362126051915E-002   0.0000000000000000     
   2.8752418162152251        9.3793771830217268E-002   0.0000000000000000     
   2.9068264231076775        9.3966229685951128E-002   0.0000000000000000     
   2.9382372363436438        9.4317404736182081E-002   0.0000000000000000     
   2.9692344630249661        9.4413706852180340E-002   0.0000000000000000     
   3.1201184995420638E-002  0.11658573020056148        0.0000000000000000     
   6.2418979123062934E-002  0.12211817834311027        0.0000000000000000     
   9.3675178208236065E-002  0.12434142819298280        0.0000000000000000     
  0.12495904260301326       0.12490294700927868        0.0000000000000000     
  0.15623707175175061       0.12499107786350079        0.0000000000000000     
  0.18749773686878818       0.12499955001654557        0.0000000000000000     
  0.21874976502126423       0.12499999530741425        0.0000000000000000     
  0.24999998476541327       0.12500000087213092        0.0000000000000000     
  0.28124999936219752       0.12500000005968850        0.0000000000000000     
  0.31249999998003553       0.12500000000190703        0.0000000000000000     
  0.34375000001297201       0.12500000000003481        0.0000000000000000     
  0.37500000003263373       0.12500000000000036        0.0000000000000000     
  0.40625000004139322       0.12500000000000000        0.0000000000000000     
  0.43750000003600087       0.12500000000000000        0.0000000000000000     
  0.46875000002603473       0.12500000000000000        0.0000000000000000     
  0.50000000002254752       0.12500000000000000        0.0000000000000000     
  0.53125000002618905       0.12500000000000000        0.0000000000000000     
  0.56250000002766098       0.12500000000000000        0.0000000000000000     
  0.59375000001910361       0.12500000000000000        0.0000000000000000     
  0.62500000000228217       0.12500000000000000        0.0000000000000000     
  0.65624999998674771       0.12500000000000000        0.0000000000000000     
  0.68749999998381528       0.12500000000000000        0.0000000000000000     
  0.71874999999844302       0.12500000000000000        0.0000000000000000     
  0.75000000002240519       0.12500000000000000        0.0000000000000000     
  0.78125000003931244       0.12500000000000000        0.0000000000000000     
  0.81250000003949518       0.12500000000000000        0.0000000000000000     
  0.84375000002840672       0.12500000000000000        0.0000000000000000     
  0.87500000002011813       0.12500000000000000        0.0000000000000000     
  0.90625000002226286       0.12500000000000000        0.0000000000000000     
  0.93750000002765332       0.12500000000000000        0.0000000000000000     
  0.96875000002293055       0.12500000000000000        0.0000000000000000     
   1.0000000000039471       0.12500000000000000        0.0000000000000000     
   1.0312499999809630       0.12500000000000000        0.0000000000000000     
   1.0624999999709248       0.12500000000000000        0.0000000000000000     
   1.0937499999836364       0.12500000000000000        0.0000000000000000     
   1.1250000000121740       0.12500000000000000        0.0000000000000000     
   1.1562500000372318       0.12500000000000000        0.0000000000000000     
   1.1875000000429896       0.12500000000000000        0.0000000000000000     
   1.2187500000307785       0.12500000000000000        0.0000000000000000     
   1.2500000000176885       0.12500000000000000        0.0000000000000000     
   1.2812500000183362       0.12500000000000000        0.0000000000000000     
   1.3125000000276454       0.12500000000000000        0.0000000000000000     
   1.3437500000267533       0.12500000000000000        0.0000000000000000     
   1.3750000000055269       0.12500000000000000        0.0000000000000000     
   1.4062499999740861       0.12500000000000000        0.0000000000000000     
   1.4374999999496056       0.12500000000000000        0.0000000000000000     
   1.4687499999312714       0.12500000000000000        0.0000000000000000     
   1.4999999998993936       0.12500000000000000        0.0000000000000000     
   1.5312499998573024       0.12500000000000000        0.0000000000000000     
   1.5624999998577165       0.12500000000000000        0.0000000000000000     
   1.5937499999430975       0.12500000000000000        0.0000000000000000     
   1.6250000000617431       0.12500000000000000        0.0000000000000000     
   1.6562500001005709       0.12500000000000000        0.0000000000000000     
   1.6875000000265736       0.12500000000000000        0.0000000000000000     
   1.7187499999442395       0.12500000000000000        0.0000000000000000     
   1.7499999999708988       0.12500000000000000        0.0000000000000000     
   1.7812500001021541       0.12500000000000000        0.0000000000000000     
   1.8125000002391938       0.12500000000000000        0.0000000000000000     
   1.8437500002915019       0.12500000000000000        0.0000000000000000     
   1.8750000002244376       0.12500000000000000        0.0000000000000000     
   1.9062500000791778       0.12500000000000000        0.0000000000000000     
   1.9374999999688853       0.12500000000000000        0.0000000000000000     
   1.9687499999815330       0.12500000000000000        0.0000000000000000     
   2.0000000000701963       0.12500000000000000        0.0000000000000000     
   2.0312500001016591       0.12500000000000000        0.0000000000000000     
   2.0625000000266582       0.12500000000000000        0.0000000000000000     
   2.0937499999442437       0.12500000000000000        0.0000000000000000     
   2.1249999999708984       0.12500000000000000        0.0000000000000000     
   2.1562500001021543       0.12500000000000000        0.0000000000000000     
   2.1875000002391944       0.12500000000000000        0.0000000000000000     
   2.2187500002915028       0.12500000000000000        0.0000000000000000     
   2.2500000002244374       0.12500000000000000        0.0000000000000000     
   2.2812500000791780       0.12500000000000000        0.0000000000000000     
   2.3124999999688853       0.12500000000000000        0.0000000000000000     
   2.3437499999815330       0.12500000000000000        0.0000000000000000     
   2.3750000000701963       0.12500000000000000        0.0000000000000000     
   2.4062500001016591       0.12500000000000000        0.0000000000000000     
   2.4375000000266582       0.12500000000000000        0.0000000000000000     
   2.4687499999442437       0.12500000000000000        0.0000000000000000     
   2.4999999999708984       0.12500000000000000        0.0000000000000000     
   2.5312500001021543       0.12500000000000000        0.0000000000000000     
   2.5625000002391944       0.12500000000000000        0.0000000000000000     
   2.5937500002915028       0.12500000000000000        0.0000000000000000     
   2.6250000002244409       0.12500000000000036        0.0000000000000000     
   2.6562500000794551       0.12500000000003589        0.0000000000000000     
   2.6874999999855547       0.12500000000208525        0.0000000000000000     
   2.7187500006118648       0.12500000007661366        0.0000000000000000     
   2.7500000153053299       0.12500000184686499        0.0000000000000000     